ITEM: TIMESTEP
0
ITEM: NUMBER OF ATOMS
1038
ITEM: BOX BOUNDS pp ff ff
-3.189 15.945
-22.0 22.0
-22.0 22.0
ITEM: ATOMS type x y z stdvq molarfraction chemicalmultp thermalmultp chemicalmultpbcc thermalmultpbcc
12 -1.5945 -17.4911101013 -7.8114203863 0.01 1.0 0.0 38.6817305917 0.0 0.0
12 -1.5945 -17.4911101013 -2.6038051932 0.01 1.0 0.0 38.6817305917 0.0 0.0
12 -1.5945 -19.3322801013 0.0 0.01 1.0 0.0 38.6817305917 0.0 0.0
12 -1.5945 -17.4911101013 2.60381 0.01 1.0 0.0 38.6817305917 0.0 0.0
12 -1.5945 -17.4911101013 7.8114251932 0.01 1.0 0.0 38.6817305917 0.0 0.0
12 -3.189 -14.729360076 -13.0190355795 0.01 1.0 0.0 38.6817305917 0.0 0.0
12 -1.5945 -11.967600076 -13.0190355795 0.01 1.0 0.0 38.6817305917 0.0 0.0
12 -3.189 -16.570530076 -10.4152303863 0.01 1.0 0.0 38.6817305917 0.0 0.0
12 -3.189 -14.729360076 -7.8114203863 0.01 1.0 0.0 38.6817305917 0.0 0.0
12 -1.5945 -13.808770076 -10.4152303863 0.01 1.0 0.0 38.6817305917 0.0 0.0
12 -1.5945 -11.967600076 -7.8114203863 0.01 1.0 0.0 38.6817305917 0.0 0.0
12 -3.189 -16.570530076 -5.2076151932 0.01 1.0 0.0 38.6817305917 0.0 0.0
12 -3.189 -14.729360076 -2.6038051932 0.01 1.0 0.0 38.6817305917 0.0 0.0
12 -1.5945 -13.808770076 -5.2076151932 0.01 1.0 0.0 38.6817305917 0.0 0.0
12 -1.5945 -11.967600076 -2.6038051932 0.01 1.0 0.0 38.6817305917 0.0 0.0
12 -3.189 -16.570530076 0.0 0.01 1.0 0.0 38.6817305917 0.0 0.0
12 -3.189 -14.729360076 2.60381 0.01 1.0 0.0 38.6817305917 0.0 0.0
12 -1.5945 -13.808770076 0.0 0.01 1.0 0.0 38.6817305917 0.0 0.0
12 -1.5945 -11.967600076 2.60381 0.01 1.0 0.0 38.6817305917 0.0 0.0
12 -3.189 -16.570530076 5.2076151932 0.01 1.0 0.0 38.6817305917 0.0 0.0
12 -3.189 -14.729360076 7.8114251932 0.01 1.0 0.0 38.6817305917 0.0 0.0
12 -1.5945 -13.808770076 5.2076151932 0.01 1.0 0.0 38.6817305917 0.0 0.0
12 -1.5945 -11.967600076 7.8114251932 0.01 1.0 0.0 38.6817305917 0.0 0.0
12 -3.189 -16.570530076 10.4152303863 0.01 1.0 0.0 38.6817305917 0.0 0.0
12 -3.189 -14.729360076 13.0190403863 0.01 1.0 0.0 38.6817305917 0.0 0.0
12 -1.5945 -13.808770076 10.4152303863 0.01 1.0 0.0 38.6817305917 0.0 0.0
12 -1.5945 -11.967600076 13.0190403863 0.01 1.0 0.0 38.6817305917 0.0 0.0
12 -1.5945 -6.4440900507 -18.2266507726 0.01 1.0 0.0 38.6817305917 0.0 0.0
12 -3.189 -11.0470200507 -15.6228455795 0.01 1.0 0.0 38.6817305917 0.0 0.0
12 -3.189 -9.2058500507 -13.0190355795 0.01 1.0 0.0 38.6817305917 0.0 0.0
12 -1.5945 -8.2852600507 -15.6228455795 0.01 1.0 0.0 38.6817305917 0.0 0.0
12 -1.5945 -6.4440900507 -13.0190355795 0.01 1.0 0.0 38.6817305917 0.0 0.0
12 -3.189 -11.0470200507 -10.4152303863 0.01 1.0 0.0 38.6817305917 0.0 0.0
12 -3.189 -9.2058500507 -7.8114203863 0.01 1.0 0.0 38.6817305917 0.0 0.0
12 -1.5945 -8.2852600507 -10.4152303863 0.01 1.0 0.0 38.6817305917 0.0 0.0
12 -1.5945 -6.4440900507 -7.8114203863 0.01 1.0 0.0 38.6817305917 0.0 0.0
12 -3.189 -11.0470200507 -5.2076151932 0.01 1.0 0.0 38.6817305917 0.0 0.0
12 -3.189 -9.2058500507 -2.6038051932 0.01 1.0 0.0 38.6817305917 0.0 0.0
12 -1.5945 -8.2852600507 -5.2076151932 0.01 1.0 0.0 38.6817305917 0.0 0.0
12 -1.5945 -6.4440900507 -2.6038051932 0.01 1.0 0.0 38.6817305917 0.0 0.0
12 -3.189 -11.0470200507 0.0 0.01 1.0 0.0 38.6817305917 0.0 0.0
12 -3.189 -9.2058500507 2.60381 0.01 1.0 0.0 38.6817305917 0.0 0.0
12 -1.5945 -8.2852600507 0.0 0.01 1.0 0.0 38.6817305917 0.0 0.0
12 -1.5945 -6.4440900507 2.60381 0.01 1.0 0.0 38.6817305917 0.0 0.0
12 -3.189 -11.0470200507 5.2076151932 0.01 1.0 0.0 38.6817305917 0.0 0.0
12 -3.189 -9.2058500507 7.8114251932 0.01 1.0 0.0 38.6817305917 0.0 0.0
12 -1.5945 -8.2852600507 5.2076151932 0.01 1.0 0.0 38.6817305917 0.0 0.0
12 -1.5945 -6.4440900507 7.8114251932 0.01 1.0 0.0 38.6817305917 0.0 0.0
12 -3.189 -11.0470200507 10.4152303863 0.01 1.0 0.0 38.6817305917 0.0 0.0
12 -3.189 -9.2058500507 13.0190403863 0.01 1.0 0.0 38.6817305917 0.0 0.0
12 -1.5945 -8.2852600507 10.4152303863 0.01 1.0 0.0 38.6817305917 0.0 0.0
12 -1.5945 -6.4440900507 13.0190403863 0.01 1.0 0.0 38.6817305917 0.0 0.0
12 -3.189 -11.0470200507 15.6228455795 0.01 1.0 0.0 38.6817305917 0.0 0.0
12 -1.5945 -8.2852600507 15.6228455795 0.01 1.0 0.0 38.6817305917 0.0 0.0
12 -1.5945 -6.4440900507 18.2266555795 0.01 1.0 0.0 38.6817305917 0.0 0.0
12 -3.189 -3.6823400253 -18.2266507726 0.01 1.0 0.0 38.6817305917 0.0 0.0
12 -1.5945 -0.9205800253 -18.2266507726 0.01 1.0 0.0 38.6817305917 0.0 0.0
12 -3.189 -5.5235100253 -15.6228455795 0.01 1.0 0.0 38.6817305917 0.0 0.0
12 -3.189 -3.6823400253 -13.0190355795 0.01 1.0 0.0 38.6817305917 0.0 0.0
12 -1.5945 -2.7617500253 -15.6228455795 0.01 1.0 0.0 38.6817305917 0.0 0.0
12 -1.5945 -0.9205800253 -13.0190355795 0.01 1.0 0.0 38.6817305917 0.0 0.0
12 -3.189 -5.5235100253 -10.4152303863 0.01 1.0 0.0 38.6817305917 0.0 0.0
12 -3.189 -3.6823400253 -7.8114203863 0.01 1.0 0.0 38.6817305917 0.0 0.0
12 -1.5945 -2.7617500253 -10.4152303863 0.01 1.0 0.0 38.6817305917 0.0 0.0
12 -1.5945 -0.9205800253 -7.8114203863 0.01 1.0 0.0 38.6817305917 0.0 0.0
12 -3.189 -5.5235100253 -5.2076151932 0.01 1.0 0.0 38.6817305917 0.0 0.0
12 -3.189 -3.6823400253 -2.6038051932 0.01 1.0 0.0 38.6817305917 0.0 0.0
12 -1.5945 -2.7617500253 -5.2076151932 0.01 1.0 0.0 38.6817305917 0.0 0.0
12 -1.5945 -0.9205800253 -2.6038051932 0.01 1.0 0.0 38.6817305917 0.0 0.0
12 -3.189 -5.5235100253 0.0 0.01 1.0 0.0 38.6817305917 0.0 0.0
12 -3.189 -3.6823400253 2.60381 0.01 1.0 0.0 38.6817305917 0.0 0.0
12 -1.5945 -2.7617500253 0.0 0.01 1.0 0.0 38.6817305917 0.0 0.0
12 -1.5945 -0.9205800253 2.60381 0.01 1.0 0.0 38.6817305917 0.0 0.0
12 -3.189 -5.5235100253 5.2076151932 0.01 1.0 0.0 38.6817305917 0.0 0.0
12 -3.189 -3.6823400253 7.8114251932 0.01 1.0 0.0 38.6817305917 0.0 0.0
12 -1.5945 -2.7617500253 5.2076151932 0.01 1.0 0.0 38.6817305917 0.0 0.0
12 -1.5945 -0.9205800253 7.8114251932 0.01 1.0 0.0 38.6817305917 0.0 0.0
12 -3.189 -5.5235100253 10.4152303863 0.01 1.0 0.0 38.6817305917 0.0 0.0
12 -3.189 -3.6823400253 13.0190403863 0.01 1.0 0.0 38.6817305917 0.0 0.0
12 -1.5945 -2.7617500253 10.4152303863 0.01 1.0 0.0 38.6817305917 0.0 0.0
12 -1.5945 -0.9205800253 13.0190403863 0.01 1.0 0.0 38.6817305917 0.0 0.0
12 -3.189 -5.5235100253 15.6228455795 0.01 1.0 0.0 38.6817305917 0.0 0.0
12 -3.189 -3.6823400253 18.2266555795 0.01 1.0 0.0 38.6817305917 0.0 0.0
12 -1.5945 -2.7617500253 15.6228455795 0.01 1.0 0.0 38.6817305917 0.0 0.0
12 -1.5945 -0.9205800253 18.2266555795 0.01 1.0 0.0 38.6817305917 0.0 0.0
12 -3.189 1.84117 -18.2266507726 0.01 1.0 0.0 38.6817305917 0.0 0.0
12 -1.5945 4.60293 -18.2266507726 0.01 1.0 0.0 38.6817305917 0.0 0.0
12 -3.189 0.0 -15.6228455795 0.01 1.0 0.0 38.6817305917 0.0 0.0
12 -3.189 1.84117 -13.0190355795 0.01 1.0 0.0 38.6817305917 0.0 0.0
12 -1.5945 2.76176 -15.6228455795 0.01 1.0 0.0 38.6817305917 0.0 0.0
12 -1.5945 4.60293 -13.0190355795 0.01 1.0 0.0 38.6817305917 0.0 0.0
12 -3.189 0.0 -10.4152303863 0.01 1.0 0.0 38.6817305917 0.0 0.0
12 -3.189 1.84117 -7.8114203863 0.01 1.0 0.0 38.6817305917 0.0 0.0
12 -1.5945 2.76176 -10.4152303863 0.01 1.0 0.0 38.6817305917 0.0 0.0
12 -1.5945 4.60293 -7.8114203863 0.01 1.0 0.0 38.6817305917 0.0 0.0
12 -3.189 0.0 -5.2076151932 0.01 1.0 0.0 38.6817305917 0.0 0.0
12 -3.189 1.84117 -2.6038051932 0.01 1.0 0.0 38.6817305917 0.0 0.0
12 -1.5945 2.76176 -5.2076151932 0.01 1.0 0.0 38.6817305917 0.0 0.0
12 -1.5945 4.60293 -2.6038051932 0.01 1.0 0.0 38.6817305917 0.0 0.0
12 -3.189 0.0 0.0 0.01 1.0 0.0 38.6817305917 0.0 0.0
12 -3.189 1.84117 2.60381 0.01 1.0 0.0 38.6817305917 0.0 0.0
12 -1.5945 2.76176 0.0 0.01 1.0 0.0 38.6817305917 0.0 0.0
12 -1.5945 4.60293 2.60381 0.01 1.0 0.0 38.6817305917 0.0 0.0
12 -3.189 0.0 5.2076151932 0.01 1.0 0.0 38.6817305917 0.0 0.0
12 -3.189 1.84117 7.8114251932 0.01 1.0 0.0 38.6817305917 0.0 0.0
12 -1.5945 2.76176 5.2076151932 0.01 1.0 0.0 38.6817305917 0.0 0.0
12 -1.5945 4.60293 7.8114251932 0.01 1.0 0.0 38.6817305917 0.0 0.0
12 -3.189 0.0 10.4152303863 0.01 1.0 0.0 38.6817305917 0.0 0.0
12 -3.189 1.84117 13.0190403863 0.01 1.0 0.0 38.6817305917 0.0 0.0
12 -1.5945 2.76176 10.4152303863 0.01 1.0 0.0 38.6817305917 0.0 0.0
12 -1.5945 4.60293 13.0190403863 0.01 1.0 0.0 38.6817305917 0.0 0.0
12 -3.189 0.0 15.6228455795 0.01 1.0 0.0 38.6817305917 0.0 0.0
12 -3.189 1.84117 18.2266555795 0.01 1.0 0.0 38.6817305917 0.0 0.0
12 -1.5945 2.76176 15.6228455795 0.01 1.0 0.0 38.6817305917 0.0 0.0
12 -1.5945 4.60293 18.2266555795 0.01 1.0 0.0 38.6817305917 0.0 0.0
12 -3.189 7.3646800253 -18.2266507726 0.01 1.0 0.0 38.6817305917 0.0 0.0
12 -3.189 5.5235100253 -15.6228455795 0.01 1.0 0.0 38.6817305917 0.0 0.0
12 -3.189 7.3646800253 -13.0190355795 0.01 1.0 0.0 38.6817305917 0.0 0.0
12 -1.5945 8.2852700253 -15.6228455795 0.01 1.0 0.0 38.6817305917 0.0 0.0
12 -1.5945 10.1264400253 -13.0190355795 0.01 1.0 0.0 38.6817305917 0.0 0.0
12 -3.189 5.5235100253 -10.4152303863 0.01 1.0 0.0 38.6817305917 0.0 0.0
12 -3.189 7.3646800253 -7.8114203863 0.01 1.0 0.0 38.6817305917 0.0 0.0
12 -1.5945 8.2852700253 -10.4152303863 0.01 1.0 0.0 38.6817305917 0.0 0.0
12 -1.5945 10.1264400253 -7.8114203863 0.01 1.0 0.0 38.6817305917 0.0 0.0
12 -3.189 5.5235100253 -5.2076151932 0.01 1.0 0.0 38.6817305917 0.0 0.0
12 -3.189 7.3646800253 -2.6038051932 0.01 1.0 0.0 38.6817305917 0.0 0.0
12 -1.5945 8.2852700253 -5.2076151932 0.01 1.0 0.0 38.6817305917 0.0 0.0
12 -1.5945 10.1264400253 -2.6038051932 0.01 1.0 0.0 38.6817305917 0.0 0.0
12 -3.189 5.5235100253 0.0 0.01 1.0 0.0 38.6817305917 0.0 0.0
12 -3.189 7.3646800253 2.60381 0.01 1.0 0.0 38.6817305917 0.0 0.0
12 -1.5945 8.2852700253 0.0 0.01 1.0 0.0 38.6817305917 0.0 0.0
12 -1.5945 10.1264400253 2.60381 0.01 1.0 0.0 38.6817305917 0.0 0.0
12 -3.189 5.5235100253 5.2076151932 0.01 1.0 0.0 38.6817305917 0.0 0.0
12 -3.189 7.3646800253 7.8114251932 0.01 1.0 0.0 38.6817305917 0.0 0.0
12 -1.5945 8.2852700253 5.2076151932 0.01 1.0 0.0 38.6817305917 0.0 0.0
12 -1.5945 10.1264400253 7.8114251932 0.01 1.0 0.0 38.6817305917 0.0 0.0
12 -3.189 5.5235100253 10.4152303863 0.01 1.0 0.0 38.6817305917 0.0 0.0
12 -3.189 7.3646800253 13.0190403863 0.01 1.0 0.0 38.6817305917 0.0 0.0
12 -1.5945 8.2852700253 10.4152303863 0.01 1.0 0.0 38.6817305917 0.0 0.0
12 -1.5945 10.1264400253 13.0190403863 0.01 1.0 0.0 38.6817305917 0.0 0.0
12 -3.189 5.5235100253 15.6228455795 0.01 1.0 0.0 38.6817305917 0.0 0.0
12 -3.189 7.3646800253 18.2266555795 0.01 1.0 0.0 38.6817305917 0.0 0.0
12 -1.5945 8.2852700253 15.6228455795 0.01 1.0 0.0 38.6817305917 0.0 0.0
12 -3.189 11.0470200507 -15.6228455795 0.01 1.0 0.0 38.6817305917 0.0 0.0
12 -3.189 12.8881900507 -13.0190355795 0.01 1.0 0.0 38.6817305917 0.0 0.0
12 -3.189 11.0470200507 -10.4152303863 0.01 1.0 0.0 38.6817305917 0.0 0.0
12 -3.189 12.8881900507 -7.8114203863 0.01 1.0 0.0 38.6817305917 0.0 0.0
12 -1.5945 13.8087800507 -10.4152303863 0.01 1.0 0.0 38.6817305917 0.0 0.0
12 -1.5945 15.6499500507 -7.8114203863 0.01 1.0 0.0 38.6817305917 0.0 0.0
12 -3.189 11.0470200507 -5.2076151932 0.01 1.0 0.0 38.6817305917 0.0 0.0
12 -3.189 12.8881900507 -2.6038051932 0.01 1.0 0.0 38.6817305917 0.0 0.0
12 -1.5945 13.8087800507 -5.2076151932 0.01 1.0 0.0 38.6817305917 0.0 0.0
12 -1.5945 15.6499500507 -2.6038051932 0.01 1.0 0.0 38.6817305917 0.0 0.0
12 -3.189 11.0470200507 0.0 0.01 1.0 0.0 38.6817305917 0.0 0.0
12 -3.189 12.8881900507 2.60381 0.01 1.0 0.0 38.6817305917 0.0 0.0
12 -1.5945 13.8087800507 0.0 0.01 1.0 0.0 38.6817305917 0.0 0.0
12 -1.5945 15.6499500507 2.60381 0.01 1.0 0.0 38.6817305917 0.0 0.0
12 -3.189 11.0470200507 5.2076151932 0.01 1.0 0.0 38.6817305917 0.0 0.0
12 -3.189 12.8881900507 7.8114251932 0.01 1.0 0.0 38.6817305917 0.0 0.0
12 -1.5945 13.8087800507 5.2076151932 0.01 1.0 0.0 38.6817305917 0.0 0.0
12 -1.5945 15.6499500507 7.8114251932 0.01 1.0 0.0 38.6817305917 0.0 0.0
12 -3.189 11.0470200507 10.4152303863 0.01 1.0 0.0 38.6817305917 0.0 0.0
12 -3.189 12.8881900507 13.0190403863 0.01 1.0 0.0 38.6817305917 0.0 0.0
12 -1.5945 13.8087800507 10.4152303863 0.01 1.0 0.0 38.6817305917 0.0 0.0
12 -3.189 11.0470200507 15.6228455795 0.01 1.0 0.0 38.6817305917 0.0 0.0
12 -3.189 16.570530076 -10.4152303863 0.01 1.0 0.0 38.6817305917 0.0 0.0
12 -3.189 16.570530076 -5.2076151932 0.01 1.0 0.0 38.6817305917 0.0 0.0
12 -3.189 18.411700076 -2.6038051932 0.01 1.0 0.0 38.6817305917 0.0 0.0
12 -3.189 16.570530076 0.0 0.01 1.0 0.0 38.6817305917 0.0 0.0
12 -3.189 18.411700076 2.60381 0.01 1.0 0.0 38.6817305917 0.0 0.0
12 -1.5945 19.332290076 0.0 0.01 1.0 0.0 38.6817305917 0.0 0.0
12 -3.189 16.570530076 5.2076151932 0.01 1.0 0.0 38.6817305917 0.0 0.0
12 -3.189 16.570530076 10.4152303863 0.01 1.0 0.0 38.6817305917 0.0 0.0
12 1.5945 -17.4911101013 -7.8114203863 0.01 1.0 0.0 38.6817305917 0.0 0.0
12 1.5945 -17.4911101013 -2.6038051932 0.01 1.0 0.0 38.6817305917 0.0 0.0
12 1.5945 -19.3322801013 0.0 0.01 1.0 0.0 38.6817305917 0.0 0.0
12 1.5945 -17.4911101013 2.60381 0.01 1.0 0.0 38.6817305917 0.0 0.0
12 1.5945 -17.4911101013 7.8114251932 0.01 1.0 0.0 38.6817305917 0.0 0.0
12 0.0 -14.729360076 -13.0190355795 0.01 1.0 0.0 38.6817305917 0.0 0.0
12 1.5945 -11.967600076 -13.0190355795 0.01 1.0 0.0 38.6817305917 0.0 0.0
12 0.0 -16.570530076 -10.4152303863 0.01 1.0 0.0 38.6817305917 0.0 0.0
12 0.0 -14.729360076 -7.8114203863 0.01 1.0 0.0 38.6817305917 0.0 0.0
12 1.5945 -13.808770076 -10.4152303863 0.01 1.0 0.0 38.6817305917 0.0 0.0
12 1.5945 -11.967600076 -7.8114203863 0.01 1.0 0.0 38.6817305917 0.0 0.0
12 0.0 -16.570530076 -5.2076151932 0.01 1.0 0.0 38.6817305917 0.0 0.0
12 0.0 -14.729360076 -2.6038051932 0.01 1.0 0.0 38.6817305917 0.0 0.0
12 1.5945 -13.808770076 -5.2076151932 0.01 1.0 0.0 38.6817305917 0.0 0.0
12 1.5945 -11.967600076 -2.6038051932 0.01 1.0 0.0 38.6817305917 0.0 0.0
12 0.0 -16.570530076 0.0 0.01 1.0 0.0 38.6817305917 0.0 0.0
12 0.0 -14.729360076 2.60381 0.01 1.0 0.0 38.6817305917 0.0 0.0
12 1.5945 -13.808770076 0.0 0.01 1.0 0.0 38.6817305917 0.0 0.0
12 1.5945 -11.967600076 2.60381 0.01 1.0 0.0 38.6817305917 0.0 0.0
12 0.0 -16.570530076 5.2076151932 0.01 1.0 0.0 38.6817305917 0.0 0.0
12 0.0 -14.729360076 7.8114251932 0.01 1.0 0.0 38.6817305917 0.0 0.0
12 1.5945 -13.808770076 5.2076151932 0.01 1.0 0.0 38.6817305917 0.0 0.0
12 1.5945 -11.967600076 7.8114251932 0.01 1.0 0.0 38.6817305917 0.0 0.0
12 0.0 -16.570530076 10.4152303863 0.01 1.0 0.0 38.6817305917 0.0 0.0
12 0.0 -14.729360076 13.0190403863 0.01 1.0 0.0 38.6817305917 0.0 0.0
12 1.5945 -13.808770076 10.4152303863 0.01 1.0 0.0 38.6817305917 0.0 0.0
12 1.5945 -11.967600076 13.0190403863 0.01 1.0 0.0 38.6817305917 0.0 0.0
12 1.5945 -6.4440900507 -18.2266507726 0.01 1.0 0.0 38.6817305917 0.0 0.0
12 0.0 -11.0470200507 -15.6228455795 0.01 1.0 0.0 38.6817305917 0.0 0.0
12 0.0 -9.2058500507 -13.0190355795 0.01 1.0 0.0 38.6817305917 0.0 0.0
12 1.5945 -8.2852600507 -15.6228455795 0.01 1.0 0.0 38.6817305917 0.0 0.0
12 1.5945 -6.4440900507 -13.0190355795 0.01 1.0 0.0 38.6817305917 0.0 0.0
12 0.0 -11.0470200507 -10.4152303863 0.01 1.0 0.0 38.6817305917 0.0 0.0
12 0.0 -9.2058500507 -7.8114203863 0.01 1.0 0.0 38.6817305917 0.0 0.0
12 1.5945 -8.2852600507 -10.4152303863 0.01 1.0 0.0 38.6817305917 0.0 0.0
12 1.5945 -6.4440900507 -7.8114203863 0.01 1.0 0.0 38.6817305917 0.0 0.0
12 0.0 -11.0470200507 -5.2076151932 0.01 1.0 0.0 38.6817305917 0.0 0.0
12 0.0 -9.2058500507 -2.6038051932 0.01 1.0 0.0 38.6817305917 0.0 0.0
12 1.5945 -8.2852600507 -5.2076151932 0.01 1.0 0.0 38.6817305917 0.0 0.0
12 1.5945 -6.4440900507 -2.6038051932 0.01 1.0 0.0 38.6817305917 0.0 0.0
12 0.0 -11.0470200507 0.0 0.01 1.0 0.0 38.6817305917 0.0 0.0
12 0.0 -9.2058500507 2.60381 0.01 1.0 0.0 38.6817305917 0.0 0.0
12 1.5945 -8.2852600507 0.0 0.01 1.0 0.0 38.6817305917 0.0 0.0
12 1.5945 -6.4440900507 2.60381 0.01 1.0 0.0 38.6817305917 0.0 0.0
12 0.0 -11.0470200507 5.2076151932 0.01 1.0 0.0 38.6817305917 0.0 0.0
12 0.0 -9.2058500507 7.8114251932 0.01 1.0 0.0 38.6817305917 0.0 0.0
12 1.5945 -8.2852600507 5.2076151932 0.01 1.0 0.0 38.6817305917 0.0 0.0
12 1.5945 -6.4440900507 7.8114251932 0.01 1.0 0.0 38.6817305917 0.0 0.0
12 0.0 -11.0470200507 10.4152303863 0.01 1.0 0.0 38.6817305917 0.0 0.0
12 0.0 -9.2058500507 13.0190403863 0.01 1.0 0.0 38.6817305917 0.0 0.0
12 1.5945 -8.2852600507 10.4152303863 0.01 1.0 0.0 38.6817305917 0.0 0.0
12 1.5945 -6.4440900507 13.0190403863 0.01 1.0 0.0 38.6817305917 0.0 0.0
12 0.0 -11.0470200507 15.6228455795 0.01 1.0 0.0 38.6817305917 0.0 0.0
12 1.5945 -8.2852600507 15.6228455795 0.01 1.0 0.0 38.6817305917 0.0 0.0
12 1.5945 -6.4440900507 18.2266555795 0.01 1.0 0.0 38.6817305917 0.0 0.0
12 0.0 -3.6823400253 -18.2266507726 0.01 1.0 0.0 38.6817305917 0.0 0.0
12 1.5945 -0.9205800253 -18.2266507726 0.01 1.0 0.0 38.6817305917 0.0 0.0
12 0.0 -5.5235100253 -15.6228455795 0.01 1.0 0.0 38.6817305917 0.0 0.0
12 0.0 -3.6823400253 -13.0190355795 0.01 1.0 0.0 38.6817305917 0.0 0.0
12 1.5945 -2.7617500253 -15.6228455795 0.01 1.0 0.0 38.6817305917 0.0 0.0
12 1.5945 -0.9205800253 -13.0190355795 0.01 1.0 0.0 38.6817305917 0.0 0.0
12 0.0 -5.5235100253 -10.4152303863 0.01 1.0 0.0 38.6817305917 0.0 0.0
12 0.0 -3.6823400253 -7.8114203863 0.01 1.0 0.0 38.6817305917 0.0 0.0
12 1.5945 -2.7617500253 -10.4152303863 0.01 1.0 0.0 38.6817305917 0.0 0.0
12 1.5945 -0.9205800253 -7.8114203863 0.01 1.0 0.0 38.6817305917 0.0 0.0
12 0.0 -5.5235100253 -5.2076151932 0.01 1.0 0.0 38.6817305917 0.0 0.0
12 0.0 -3.6823400253 -2.6038051932 0.01 1.0 0.0 38.6817305917 0.0 0.0
12 1.5945 -2.7617500253 -5.2076151932 0.01 1.0 0.0 38.6817305917 0.0 0.0
12 1.5945 -0.9205800253 -2.6038051932 0.01 1.0 0.0 38.6817305917 0.0 0.0
12 0.0 -5.5235100253 0.0 0.01 1.0 0.0 38.6817305917 0.0 0.0
12 0.0 -3.6823400253 2.60381 0.01 1.0 0.0 38.6817305917 0.0 0.0
12 1.5945 -2.7617500253 0.0 0.01 1.0 0.0 38.6817305917 0.0 0.0
12 1.5945 -0.9205800253 2.60381 0.01 1.0 0.0 38.6817305917 0.0 0.0
12 0.0 -5.5235100253 5.2076151932 0.01 1.0 0.0 38.6817305917 0.0 0.0
12 0.0 -3.6823400253 7.8114251932 0.01 1.0 0.0 38.6817305917 0.0 0.0
12 1.5945 -2.7617500253 5.2076151932 0.01 1.0 0.0 38.6817305917 0.0 0.0
12 1.5945 -0.9205800253 7.8114251932 0.01 1.0 0.0 38.6817305917 0.0 0.0
12 0.0 -5.5235100253 10.4152303863 0.01 1.0 0.0 38.6817305917 0.0 0.0
12 0.0 -3.6823400253 13.0190403863 0.01 1.0 0.0 38.6817305917 0.0 0.0
12 1.5945 -2.7617500253 10.4152303863 0.01 1.0 0.0 38.6817305917 0.0 0.0
12 1.5945 -0.9205800253 13.0190403863 0.01 1.0 0.0 38.6817305917 0.0 0.0
12 0.0 -5.5235100253 15.6228455795 0.01 1.0 0.0 38.6817305917 0.0 0.0
12 0.0 -3.6823400253 18.2266555795 0.01 1.0 0.0 38.6817305917 0.0 0.0
12 1.5945 -2.7617500253 15.6228455795 0.01 1.0 0.0 38.6817305917 0.0 0.0
12 1.5945 -0.9205800253 18.2266555795 0.01 1.0 0.0 38.6817305917 0.0 0.0
12 0.0 1.84117 -18.2266507726 0.01 1.0 0.0 38.6817305917 0.0 0.0
12 1.5945 4.60293 -18.2266507726 0.01 1.0 0.0 38.6817305917 0.0 0.0
12 0.0 0.0 -15.6228455795 0.01 1.0 0.0 38.6817305917 0.0 0.0
12 0.0 1.84117 -13.0190355795 0.01 1.0 0.0 38.6817305917 0.0 0.0
12 1.5945 2.76176 -15.6228455795 0.01 1.0 0.0 38.6817305917 0.0 0.0
12 1.5945 4.60293 -13.0190355795 0.01 1.0 0.0 38.6817305917 0.0 0.0
12 0.0 0.0 -10.4152303863 0.01 1.0 0.0 38.6817305917 0.0 0.0
12 0.0 1.84117 -7.8114203863 0.01 1.0 0.0 38.6817305917 0.0 0.0
12 1.5945 2.76176 -10.4152303863 0.01 1.0 0.0 38.6817305917 0.0 0.0
12 1.5945 4.60293 -7.8114203863 0.01 1.0 0.0 38.6817305917 0.0 0.0
12 0.0 0.0 -5.2076151932 0.01 1.0 0.0 38.6817305917 0.0 0.0
12 0.0 1.84117 -2.6038051932 0.01 1.0 0.0 38.6817305917 0.0 0.0
12 1.5945 2.76176 -5.2076151932 0.01 1.0 0.0 38.6817305917 0.0 0.0
12 1.5945 4.60293 -2.6038051932 0.01 1.0 0.0 38.6817305917 0.0 0.0
12 0.0 0.0 0.0 0.01 1.0 0.0 38.6817305917 0.0 0.0
12 0.0 1.84117 2.60381 0.01 1.0 0.0 38.6817305917 0.0 0.0
12 1.5945 2.76176 0.0 0.01 1.0 0.0 38.6817305917 0.0 0.0
12 1.5945 4.60293 2.60381 0.01 1.0 0.0 38.6817305917 0.0 0.0
12 0.0 0.0 5.2076151932 0.01 1.0 0.0 38.6817305917 0.0 0.0
12 0.0 1.84117 7.8114251932 0.01 1.0 0.0 38.6817305917 0.0 0.0
12 1.5945 2.76176 5.2076151932 0.01 1.0 0.0 38.6817305917 0.0 0.0
12 1.5945 4.60293 7.8114251932 0.01 1.0 0.0 38.6817305917 0.0 0.0
12 0.0 0.0 10.4152303863 0.01 1.0 0.0 38.6817305917 0.0 0.0
12 0.0 1.84117 13.0190403863 0.01 1.0 0.0 38.6817305917 0.0 0.0
12 1.5945 2.76176 10.4152303863 0.01 1.0 0.0 38.6817305917 0.0 0.0
12 1.5945 4.60293 13.0190403863 0.01 1.0 0.0 38.6817305917 0.0 0.0
12 0.0 0.0 15.6228455795 0.01 1.0 0.0 38.6817305917 0.0 0.0
12 0.0 1.84117 18.2266555795 0.01 1.0 0.0 38.6817305917 0.0 0.0
12 1.5945 2.76176 15.6228455795 0.01 1.0 0.0 38.6817305917 0.0 0.0
12 1.5945 4.60293 18.2266555795 0.01 1.0 0.0 38.6817305917 0.0 0.0
12 0.0 7.3646800253 -18.2266507726 0.01 1.0 0.0 38.6817305917 0.0 0.0
12 0.0 5.5235100253 -15.6228455795 0.01 1.0 0.0 38.6817305917 0.0 0.0
12 0.0 7.3646800253 -13.0190355795 0.01 1.0 0.0 38.6817305917 0.0 0.0
12 1.5945 8.2852700253 -15.6228455795 0.01 1.0 0.0 38.6817305917 0.0 0.0
12 1.5945 10.1264400253 -13.0190355795 0.01 1.0 0.0 38.6817305917 0.0 0.0
12 0.0 5.5235100253 -10.4152303863 0.01 1.0 0.0 38.6817305917 0.0 0.0
12 0.0 7.3646800253 -7.8114203863 0.01 1.0 0.0 38.6817305917 0.0 0.0
12 1.5945 8.2852700253 -10.4152303863 0.01 1.0 0.0 38.6817305917 0.0 0.0
12 1.5945 10.1264400253 -7.8114203863 0.01 1.0 0.0 38.6817305917 0.0 0.0
12 0.0 5.5235100253 -5.2076151932 0.01 1.0 0.0 38.6817305917 0.0 0.0
12 0.0 7.3646800253 -2.6038051932 0.01 1.0 0.0 38.6817305917 0.0 0.0
12 1.5945 8.2852700253 -5.2076151932 0.01 1.0 0.0 38.6817305917 0.0 0.0
12 1.5945 10.1264400253 -2.6038051932 0.01 1.0 0.0 38.6817305917 0.0 0.0
12 0.0 5.5235100253 0.0 0.01 1.0 0.0 38.6817305917 0.0 0.0
12 0.0 7.3646800253 2.60381 0.01 1.0 0.0 38.6817305917 0.0 0.0
12 1.5945 8.2852700253 0.0 0.01 1.0 0.0 38.6817305917 0.0 0.0
12 1.5945 10.1264400253 2.60381 0.01 1.0 0.0 38.6817305917 0.0 0.0
12 0.0 5.5235100253 5.2076151932 0.01 1.0 0.0 38.6817305917 0.0 0.0
12 0.0 7.3646800253 7.8114251932 0.01 1.0 0.0 38.6817305917 0.0 0.0
12 1.5945 8.2852700253 5.2076151932 0.01 1.0 0.0 38.6817305917 0.0 0.0
12 1.5945 10.1264400253 7.8114251932 0.01 1.0 0.0 38.6817305917 0.0 0.0
12 0.0 5.5235100253 10.4152303863 0.01 1.0 0.0 38.6817305917 0.0 0.0
12 0.0 7.3646800253 13.0190403863 0.01 1.0 0.0 38.6817305917 0.0 0.0
12 1.5945 8.2852700253 10.4152303863 0.01 1.0 0.0 38.6817305917 0.0 0.0
12 1.5945 10.1264400253 13.0190403863 0.01 1.0 0.0 38.6817305917 0.0 0.0
12 0.0 5.5235100253 15.6228455795 0.01 1.0 0.0 38.6817305917 0.0 0.0
12 0.0 7.3646800253 18.2266555795 0.01 1.0 0.0 38.6817305917 0.0 0.0
12 1.5945 8.2852700253 15.6228455795 0.01 1.0 0.0 38.6817305917 0.0 0.0
12 0.0 11.0470200507 -15.6228455795 0.01 1.0 0.0 38.6817305917 0.0 0.0
12 0.0 12.8881900507 -13.0190355795 0.01 1.0 0.0 38.6817305917 0.0 0.0
12 0.0 11.0470200507 -10.4152303863 0.01 1.0 0.0 38.6817305917 0.0 0.0
12 0.0 12.8881900507 -7.8114203863 0.01 1.0 0.0 38.6817305917 0.0 0.0
12 1.5945 13.8087800507 -10.4152303863 0.01 1.0 0.0 38.6817305917 0.0 0.0
12 1.5945 15.6499500507 -7.8114203863 0.01 1.0 0.0 38.6817305917 0.0 0.0
12 0.0 11.0470200507 -5.2076151932 0.01 1.0 0.0 38.6817305917 0.0 0.0
12 0.0 12.8881900507 -2.6038051932 0.01 1.0 0.0 38.6817305917 0.0 0.0
12 1.5945 13.8087800507 -5.2076151932 0.01 1.0 0.0 38.6817305917 0.0 0.0
12 1.5945 15.6499500507 -2.6038051932 0.01 1.0 0.0 38.6817305917 0.0 0.0
12 0.0 11.0470200507 0.0 0.01 1.0 0.0 38.6817305917 0.0 0.0
12 0.0 12.8881900507 2.60381 0.01 1.0 0.0 38.6817305917 0.0 0.0
12 1.5945 13.8087800507 0.0 0.01 1.0 0.0 38.6817305917 0.0 0.0
12 1.5945 15.6499500507 2.60381 0.01 1.0 0.0 38.6817305917 0.0 0.0
12 0.0 11.0470200507 5.2076151932 0.01 1.0 0.0 38.6817305917 0.0 0.0
12 0.0 12.8881900507 7.8114251932 0.01 1.0 0.0 38.6817305917 0.0 0.0
12 1.5945 13.8087800507 5.2076151932 0.01 1.0 0.0 38.6817305917 0.0 0.0
12 1.5945 15.6499500507 7.8114251932 0.01 1.0 0.0 38.6817305917 0.0 0.0
12 0.0 11.0470200507 10.4152303863 0.01 1.0 0.0 38.6817305917 0.0 0.0
12 0.0 12.8881900507 13.0190403863 0.01 1.0 0.0 38.6817305917 0.0 0.0
12 1.5945 13.8087800507 10.4152303863 0.01 1.0 0.0 38.6817305917 0.0 0.0
12 0.0 11.0470200507 15.6228455795 0.01 1.0 0.0 38.6817305917 0.0 0.0
12 0.0 16.570530076 -10.4152303863 0.01 1.0 0.0 38.6817305917 0.0 0.0
12 0.0 16.570530076 -5.2076151932 0.01 1.0 0.0 38.6817305917 0.0 0.0
12 0.0 18.411700076 -2.6038051932 0.01 1.0 0.0 38.6817305917 0.0 0.0
12 0.0 16.570530076 0.0 0.01 1.0 0.0 38.6817305917 0.0 0.0
12 0.0 18.411700076 2.60381 0.01 1.0 0.0 38.6817305917 0.0 0.0
12 1.5945 19.332290076 0.0 0.01 1.0 0.0 38.6817305917 0.0 0.0
12 0.0 16.570530076 5.2076151932 0.01 1.0 0.0 38.6817305917 0.0 0.0
12 0.0 16.570530076 10.4152303863 0.01 1.0 0.0 38.6817305917 0.0 0.0
12 4.7835 -17.4911101013 -7.8114203863 0.01 1.0 0.0 38.6817305917 0.0 0.0
12 4.7835 -17.4911101013 -2.6038051932 0.01 1.0 0.0 38.6817305917 0.0 0.0
12 4.7835 -19.3322801013 0.0 0.01 1.0 0.0 38.6817305917 0.0 0.0
12 4.7835 -17.4911101013 2.60381 0.01 1.0 0.0 38.6817305917 0.0 0.0
12 4.7835 -17.4911101013 7.8114251932 0.01 1.0 0.0 38.6817305917 0.0 0.0
12 3.189 -14.729360076 -13.0190355795 0.01 1.0 0.0 38.6817305917 0.0 0.0
12 4.7835 -11.967600076 -13.0190355795 0.01 1.0 0.0 38.6817305917 0.0 0.0
12 3.189 -16.570530076 -10.4152303863 0.01 1.0 0.0 38.6817305917 0.0 0.0
12 3.189 -14.729360076 -7.8114203863 0.01 1.0 0.0 38.6817305917 0.0 0.0
12 4.7835 -13.808770076 -10.4152303863 0.01 1.0 0.0 38.6817305917 0.0 0.0
12 4.7835 -11.967600076 -7.8114203863 0.01 1.0 0.0 38.6817305917 0.0 0.0
12 3.189 -16.570530076 -5.2076151932 0.01 1.0 0.0 38.6817305917 0.0 0.0
12 3.189 -14.729360076 -2.6038051932 0.01 1.0 0.0 38.6817305917 0.0 0.0
12 4.7835 -13.808770076 -5.2076151932 0.01 1.0 0.0 38.6817305917 0.0 0.0
12 4.7835 -11.967600076 -2.6038051932 0.01 1.0 0.0 38.6817305917 0.0 0.0
12 3.189 -16.570530076 0.0 0.01 1.0 0.0 38.6817305917 0.0 0.0
12 3.189 -14.729360076 2.60381 0.01 1.0 0.0 38.6817305917 0.0 0.0
12 4.7835 -13.808770076 0.0 0.01 1.0 0.0 38.6817305917 0.0 0.0
12 4.7835 -11.967600076 2.60381 0.01 1.0 0.0 38.6817305917 0.0 0.0
12 3.189 -16.570530076 5.2076151932 0.01 1.0 0.0 38.6817305917 0.0 0.0
12 3.189 -14.729360076 7.8114251932 0.01 1.0 0.0 38.6817305917 0.0 0.0
12 4.7835 -13.808770076 5.2076151932 0.01 1.0 0.0 38.6817305917 0.0 0.0
12 4.7835 -11.967600076 7.8114251932 0.01 1.0 0.0 38.6817305917 0.0 0.0
12 3.189 -16.570530076 10.4152303863 0.01 1.0 0.0 38.6817305917 0.0 0.0
12 3.189 -14.729360076 13.0190403863 0.01 1.0 0.0 38.6817305917 0.0 0.0
12 4.7835 -13.808770076 10.4152303863 0.01 1.0 0.0 38.6817305917 0.0 0.0
12 4.7835 -11.967600076 13.0190403863 0.01 1.0 0.0 38.6817305917 0.0 0.0
12 4.7835 -6.4440900507 -18.2266507726 0.01 1.0 0.0 38.6817305917 0.0 0.0
12 3.189 -11.0470200507 -15.6228455795 0.01 1.0 0.0 38.6817305917 0.0 0.0
12 3.189 -9.2058500507 -13.0190355795 0.01 1.0 0.0 38.6817305917 0.0 0.0
12 4.7835 -8.2852600507 -15.6228455795 0.01 1.0 0.0 38.6817305917 0.0 0.0
12 4.7835 -6.4440900507 -13.0190355795 0.01 1.0 0.0 38.6817305917 0.0 0.0
12 3.189 -11.0470200507 -10.4152303863 0.01 1.0 0.0 38.6817305917 0.0 0.0
12 3.189 -9.2058500507 -7.8114203863 0.01 1.0 0.0 38.6817305917 0.0 0.0
12 4.7835 -8.2852600507 -10.4152303863 0.01 1.0 0.0 38.6817305917 0.0 0.0
12 4.7835 -6.4440900507 -7.8114203863 0.01 1.0 0.0 38.6817305917 0.0 0.0
12 3.189 -11.0470200507 -5.2076151932 0.01 1.0 0.0 38.6817305917 0.0 0.0
12 3.189 -9.2058500507 -2.6038051932 0.01 1.0 0.0 38.6817305917 0.0 0.0
12 4.7835 -8.2852600507 -5.2076151932 0.01 1.0 0.0 38.6817305917 0.0 0.0
12 4.7835 -6.4440900507 -2.6038051932 0.01 1.0 0.0 38.6817305917 0.0 0.0
12 3.189 -11.0470200507 0.0 0.01 1.0 0.0 38.6817305917 0.0 0.0
12 3.189 -9.2058500507 2.60381 0.01 1.0 0.0 38.6817305917 0.0 0.0
12 4.7835 -8.2852600507 0.0 0.01 1.0 0.0 38.6817305917 0.0 0.0
12 4.7835 -6.4440900507 2.60381 0.01 1.0 0.0 38.6817305917 0.0 0.0
12 3.189 -11.0470200507 5.2076151932 0.01 1.0 0.0 38.6817305917 0.0 0.0
12 3.189 -9.2058500507 7.8114251932 0.01 1.0 0.0 38.6817305917 0.0 0.0
12 4.7835 -8.2852600507 5.2076151932 0.01 1.0 0.0 38.6817305917 0.0 0.0
12 4.7835 -6.4440900507 7.8114251932 0.01 1.0 0.0 38.6817305917 0.0 0.0
12 3.189 -11.0470200507 10.4152303863 0.01 1.0 0.0 38.6817305917 0.0 0.0
12 3.189 -9.2058500507 13.0190403863 0.01 1.0 0.0 38.6817305917 0.0 0.0
12 4.7835 -8.2852600507 10.4152303863 0.01 1.0 0.0 38.6817305917 0.0 0.0
12 4.7835 -6.4440900507 13.0190403863 0.01 1.0 0.0 38.6817305917 0.0 0.0
12 3.189 -11.0470200507 15.6228455795 0.01 1.0 0.0 38.6817305917 0.0 0.0
12 4.7835 -8.2852600507 15.6228455795 0.01 1.0 0.0 38.6817305917 0.0 0.0
12 4.7835 -6.4440900507 18.2266555795 0.01 1.0 0.0 38.6817305917 0.0 0.0
12 3.189 -3.6823400253 -18.2266507726 0.01 1.0 0.0 38.6817305917 0.0 0.0
12 4.7835 -0.9205800253 -18.2266507726 0.01 1.0 0.0 38.6817305917 0.0 0.0
12 3.189 -5.5235100253 -15.6228455795 0.01 1.0 0.0 38.6817305917 0.0 0.0
12 3.189 -3.6823400253 -13.0190355795 0.01 1.0 0.0 38.6817305917 0.0 0.0
12 4.7835 -2.7617500253 -15.6228455795 0.01 1.0 0.0 38.6817305917 0.0 0.0
12 4.7835 -0.9205800253 -13.0190355795 0.01 1.0 0.0 38.6817305917 0.0 0.0
12 3.189 -5.5235100253 -10.4152303863 0.01 1.0 0.0 38.6817305917 0.0 0.0
12 3.189 -3.6823400253 -7.8114203863 0.01 1.0 0.0 38.6817305917 0.0 0.0
12 4.7835 -2.7617500253 -10.4152303863 0.01 1.0 0.0 38.6817305917 0.0 0.0
12 4.7835 -0.9205800253 -7.8114203863 0.01 1.0 0.0 38.6817305917 0.0 0.0
12 3.189 -5.5235100253 -5.2076151932 0.01 1.0 0.0 38.6817305917 0.0 0.0
12 3.189 -3.6823400253 -2.6038051932 0.01 1.0 0.0 38.6817305917 0.0 0.0
12 4.7835 -2.7617500253 -5.2076151932 0.01 1.0 0.0 38.6817305917 0.0 0.0
12 4.7835 -0.9205800253 -2.6038051932 0.01 1.0 0.0 38.6817305917 0.0 0.0
12 3.189 -5.5235100253 0.0 0.01 1.0 0.0 38.6817305917 0.0 0.0
12 3.189 -3.6823400253 2.60381 0.01 1.0 0.0 38.6817305917 0.0 0.0
12 4.7835 -2.7617500253 0.0 0.01 1.0 0.0 38.6817305917 0.0 0.0
12 4.7835 -0.9205800253 2.60381 0.01 1.0 0.0 38.6817305917 0.0 0.0
12 3.189 -5.5235100253 5.2076151932 0.01 1.0 0.0 38.6817305917 0.0 0.0
12 3.189 -3.6823400253 7.8114251932 0.01 1.0 0.0 38.6817305917 0.0 0.0
12 4.7835 -2.7617500253 5.2076151932 0.01 1.0 0.0 38.6817305917 0.0 0.0
12 4.7835 -0.9205800253 7.8114251932 0.01 1.0 0.0 38.6817305917 0.0 0.0
12 3.189 -5.5235100253 10.4152303863 0.01 1.0 0.0 38.6817305917 0.0 0.0