ITEM: TIMESTEP
0
ITEM: NUMBER OF ATOMS
6800
ITEM: BOX BOUNDS ff ff ff
-25.5120000000 28.701000000
-22.0940401013 33.141060152
-20.8304607726 31.245691159
ITEM: ATOMS type x y z stdvq molarfraction chemicalmultp thermalmultp chemicalmultpbcc thermalmultpbcc
12 -25.512 -22.0940401013 -20.8304607726 0.01 1.0 0.0 38.6817305917 0.0 0.0
12 -25.512 -20.2528701013 -18.2266507726 0.01 1.0 0.0 38.6817305917 0.0 0.0
12 -23.9175 -19.3322801013 -20.8304607726 0.01 1.0 0.0 38.6817305917 0.0 0.0
12 -23.9175 -17.4911101013 -18.2266507726 0.01 1.0 0.0 38.6817305917 0.0 0.0
12 -25.512 -22.0940401013 -15.6228455795 0.01 1.0 0.0 38.6817305917 0.0 0.0
12 -25.512 -20.2528701013 -13.0190355795 0.01 1.0 0.0 38.6817305917 0.0 0.0
12 -23.9175 -19.3322801013 -15.6228455795 0.01 1.0 0.0 38.6817305917 0.0 0.0
12 -23.9175 -17.4911101013 -13.0190355795 0.01 1.0 0.0 38.6817305917 0.0 0.0
12 -25.512 -22.0940401013 -10.4152303863 0.01 1.0 0.0 38.6817305917 0.0 0.0
12 -25.512 -20.2528701013 -7.8114203863 0.01 1.0 0.0 38.6817305917 0.0 0.0
12 -23.9175 -19.3322801013 -10.4152303863 0.01 1.0 0.0 38.6817305917 0.0 0.0
12 -23.9175 -17.4911101013 -7.8114203863 0.01 1.0 0.0 38.6817305917 0.0 0.0
12 -25.512 -22.0940401013 -5.2076151932 0.01 1.0 0.0 38.6817305917 0.0 0.0
12 -25.512 -20.2528701013 -2.6038051932 0.01 1.0 0.0 38.6817305917 0.0 0.0
12 -23.9175 -19.3322801013 -5.2076151932 0.01 1.0 0.0 38.6817305917 0.0 0.0
12 -23.9175 -17.4911101013 -2.6038051932 0.01 1.0 0.0 38.6817305917 0.0 0.0
12 -25.512 -22.0940401013 0.0 0.01 1.0 0.0 38.6817305917 0.0 0.0
12 -25.512 -20.2528701013 2.60381 0.01 1.0 0.0 38.6817305917 0.0 0.0
12 -23.9175 -19.3322801013 0.0 0.01 1.0 0.0 38.6817305917 0.0 0.0
12 -23.9175 -17.4911101013 2.60381 0.01 1.0 0.0 38.6817305917 0.0 0.0
12 -25.512 -22.0940401013 5.2076151932 0.01 1.0 0.0 38.6817305917 0.0 0.0
12 -25.512 -20.2528701013 7.8114251932 0.01 1.0 0.0 38.6817305917 0.0 0.0
12 -23.9175 -19.3322801013 5.2076151932 0.01 1.0 0.0 38.6817305917 0.0 0.0
12 -23.9175 -17.4911101013 7.8114251932 0.01 1.0 0.0 38.6817305917 0.0 0.0
12 -25.512 -22.0940401013 10.4152303863 0.01 1.0 0.0 38.6817305917 0.0 0.0
12 -25.512 -20.2528701013 13.0190403863 0.01 1.0 0.0 38.6817305917 0.0 0.0
12 -23.9175 -19.3322801013 10.4152303863 0.01 1.0 0.0 38.6817305917 0.0 0.0
12 -23.9175 -17.4911101013 13.0190403863 0.01 1.0 0.0 38.6817305917 0.0 0.0
12 -25.512 -22.0940401013 15.6228455795 0.01 1.0 0.0 38.6817305917 0.0 0.0
12 -25.512 -20.2528701013 18.2266555795 0.01 1.0 0.0 38.6817305917 0.0 0.0
12 -23.9175 -19.3322801013 15.6228455795 0.01 1.0 0.0 38.6817305917 0.0 0.0
12 -23.9175 -17.4911101013 18.2266555795 0.01 1.0 0.0 38.6817305917 0.0 0.0
12 -25.512 -22.0940401013 20.8304607726 0.01 1.0 0.0 38.6817305917 0.0 0.0
12 -25.512 -20.2528701013 23.4342707726 0.01 1.0 0.0 38.6817305917 0.0 0.0
12 -23.9175 -19.3322801013 20.8304607726 0.01 1.0 0.0 38.6817305917 0.0 0.0
12 -23.9175 -17.4911101013 23.4342707726 0.01 1.0 0.0 38.6817305917 0.0 0.0
12 -25.512 -22.0940401013 26.0380759658 0.01 1.0 0.0 38.6817305917 0.0 0.0
12 -25.512 -20.2528701013 28.6418859658 0.01 1.0 0.0 38.6817305917 0.0 0.0
12 -23.9175 -19.3322801013 26.0380759658 0.01 1.0 0.0 38.6817305917 0.0 0.0
12 -23.9175 -17.4911101013 28.6418859658 0.01 1.0 0.0 38.6817305917 0.0 0.0
12 -25.512 -16.570530076 -20.8304607726 0.01 1.0 0.0 38.6817305917 0.0 0.0
12 -25.512 -14.729360076 -18.2266507726 0.01 1.0 0.0 38.6817305917 0.0 0.0
12 -23.9175 -13.808770076 -20.8304607726 0.01 1.0 0.0 38.6817305917 0.0 0.0
12 -23.9175 -11.967600076 -18.2266507726 0.01 1.0 0.0 38.6817305917 0.0 0.0
12 -25.512 -16.570530076 -15.6228455795 0.01 1.0 0.0 38.6817305917 0.0 0.0
12 -25.512 -14.729360076 -13.0190355795 0.01 1.0 0.0 38.6817305917 0.0 0.0
12 -23.9175 -13.808770076 -15.6228455795 0.01 1.0 0.0 38.6817305917 0.0 0.0
12 -23.9175 -11.967600076 -13.0190355795 0.01 1.0 0.0 38.6817305917 0.0 0.0
12 -25.512 -16.570530076 -10.4152303863 0.01 1.0 0.0 38.6817305917 0.0 0.0
12 -25.512 -14.729360076 -7.8114203863 0.01 1.0 0.0 38.6817305917 0.0 0.0
12 -23.9175 -13.808770076 -10.4152303863 0.01 1.0 0.0 38.6817305917 0.0 0.0
12 -23.9175 -11.967600076 -7.8114203863 0.01 1.0 0.0 38.6817305917 0.0 0.0
12 -25.512 -16.570530076 -5.2076151932 0.01 1.0 0.0 38.6817305917 0.0 0.0
12 -25.512 -14.729360076 -2.6038051932 0.01 1.0 0.0 38.6817305917 0.0 0.0
12 -23.9175 -13.808770076 -5.2076151932 0.01 1.0 0.0 38.6817305917 0.0 0.0
12 -23.9175 -11.967600076 -2.6038051932 0.01 1.0 0.0 38.6817305917 0.0 0.0
12 -25.512 -16.570530076 0.0 0.01 1.0 0.0 38.6817305917 0.0 0.0
12 -25.512 -14.729360076 2.60381 0.01 1.0 0.0 38.6817305917 0.0 0.0
12 -23.9175 -13.808770076 0.0 0.01 1.0 0.0 38.6817305917 0.0 0.0
12 -23.9175 -11.967600076 2.60381 0.01 1.0 0.0 38.6817305917 0.0 0.0
12 -25.512 -16.570530076 5.2076151932 0.01 1.0 0.0 38.6817305917 0.0 0.0
12 -25.512 -14.729360076 7.8114251932 0.01 1.0 0.0 38.6817305917 0.0 0.0
12 -23.9175 -13.808770076 5.2076151932 0.01 1.0 0.0 38.6817305917 0.0 0.0
12 -23.9175 -11.967600076 7.8114251932 0.01 1.0 0.0 38.6817305917 0.0 0.0
12 -25.512 -16.570530076 10.4152303863 0.01 1.0 0.0 38.6817305917 0.0 0.0
12 -25.512 -14.729360076 13.0190403863 0.01 1.0 0.0 38.6817305917 0.0 0.0
12 -23.9175 -13.808770076 10.4152303863 0.01 1.0 0.0 38.6817305917 0.0 0.0
12 -23.9175 -11.967600076 13.0190403863 0.01 1.0 0.0 38.6817305917 0.0 0.0
12 -25.512 -16.570530076 15.6228455795 0.01 1.0 0.0 38.6817305917 0.0 0.0
12 -25.512 -14.729360076 18.2266555795 0.01 1.0 0.0 38.6817305917 0.0 0.0
12 -23.9175 -13.808770076 15.6228455795 0.01 1.0 0.0 38.6817305917 0.0 0.0
12 -23.9175 -11.967600076 18.2266555795 0.01 1.0 0.0 38.6817305917 0.0 0.0
12 -25.512 -16.570530076 20.8304607726 0.01 1.0 0.0 38.6817305917 0.0 0.0
12 -25.512 -14.729360076 23.4342707726 0.01 1.0 0.0 38.6817305917 0.0 0.0
12 -23.9175 -13.808770076 20.8304607726 0.01 1.0 0.0 38.6817305917 0.0 0.0
12 -23.9175 -11.967600076 23.4342707726 0.01 1.0 0.0 38.6817305917 0.0 0.0
12 -25.512 -16.570530076 26.0380759658 0.01 1.0 0.0 38.6817305917 0.0 0.0
12 -25.512 -14.729360076 28.6418859658 0.01 1.0 0.0 38.6817305917 0.0 0.0
12 -23.9175 -13.808770076 26.0380759658 0.01 1.0 0.0 38.6817305917 0.0 0.0
12 -23.9175 -11.967600076 28.6418859658 0.01 1.0 0.0 38.6817305917 0.0 0.0
12 -25.512 -11.0470200507 -20.8304607726 0.01 1.0 0.0 38.6817305917 0.0 0.0
12 -25.512 -9.2058500507 -18.2266507726 0.01 1.0 0.0 38.6817305917 0.0 0.0
12 -23.9175 -8.2852600507 -20.8304607726 0.01 1.0 0.0 38.6817305917 0.0 0.0
12 -23.9175 -6.4440900507 -18.2266507726 0.01 1.0 0.0 38.6817305917 0.0 0.0
12 -25.512 -11.0470200507 -15.6228455795 0.01 1.0 0.0 38.6817305917 0.0 0.0
12 -25.512 -9.2058500507 -13.0190355795 0.01 1.0 0.0 38.6817305917 0.0 0.0
12 -23.9175 -8.2852600507 -15.6228455795 0.01 1.0 0.0 38.6817305917 0.0 0.0
12 -23.9175 -6.4440900507 -13.0190355795 0.01 1.0 0.0 38.6817305917 0.0 0.0
12 -25.512 -11.0470200507 -10.4152303863 0.01 1.0 0.0 38.6817305917 0.0 0.0
12 -25.512 -9.2058500507 -7.8114203863 0.01 1.0 0.0 38.6817305917 0.0 0.0
12 -23.9175 -8.2852600507 -10.4152303863 0.01 1.0 0.0 38.6817305917 0.0 0.0
12 -23.9175 -6.4440900507 -7.8114203863 0.01 1.0 0.0 38.6817305917 0.0 0.0
12 -25.512 -11.0470200507 -5.2076151932 0.01 1.0 0.0 38.6817305917 0.0 0.0
12 -25.512 -9.2058500507 -2.6038051932 0.01 1.0 0.0 38.6817305917 0.0 0.0
12 -23.9175 -8.2852600507 -5.2076151932 0.01 1.0 0.0 38.6817305917 0.0 0.0
12 -23.9175 -6.4440900507 -2.6038051932 0.01 1.0 0.0 38.6817305917 0.0 0.0
12 -25.512 -11.0470200507 0.0 0.01 1.0 0.0 38.6817305917 0.0 0.0
12 -25.512 -9.2058500507 2.60381 0.01 1.0 0.0 38.6817305917 0.0 0.0
12 -23.9175 -8.2852600507 0.0 0.01 1.0 0.0 38.6817305917 0.0 0.0
12 -23.9175 -6.4440900507 2.60381 0.01 1.0 0.0 38.6817305917 0.0 0.0
12 -25.512 -11.0470200507 5.2076151932 0.01 1.0 0.0 38.6817305917 0.0 0.0
12 -25.512 -9.2058500507 7.8114251932 0.01 1.0 0.0 38.6817305917 0.0 0.0
12 -23.9175 -8.2852600507 5.2076151932 0.01 1.0 0.0 38.6817305917 0.0 0.0
12 -23.9175 -6.4440900507 7.8114251932 0.01 1.0 0.0 38.6817305917 0.0 0.0
12 -25.512 -11.0470200507 10.4152303863 0.01 1.0 0.0 38.6817305917 0.0 0.0
12 -25.512 -9.2058500507 13.0190403863 0.01 1.0 0.0 38.6817305917 0.0 0.0
12 -23.9175 -8.2852600507 10.4152303863 0.01 1.0 0.0 38.6817305917 0.0 0.0
12 -23.9175 -6.4440900507 13.0190403863 0.01 1.0 0.0 38.6817305917 0.0 0.0
12 -25.512 -11.0470200507 15.6228455795 0.01 1.0 0.0 38.6817305917 0.0 0.0
12 -25.512 -9.2058500507 18.2266555795 0.01 1.0 0.0 38.6817305917 0.0 0.0
12 -23.9175 -8.2852600507 15.6228455795 0.01 1.0 0.0 38.6817305917 0.0 0.0
12 -23.9175 -6.4440900507 18.2266555795 0.01 1.0 0.0 38.6817305917 0.0 0.0
12 -25.512 -11.0470200507 20.8304607726 0.01 1.0 0.0 38.6817305917 0.0 0.0
12 -25.512 -9.2058500507 23.4342707726 0.01 1.0 0.0 38.6817305917 0.0 0.0
12 -23.9175 -8.2852600507 20.8304607726 0.01 1.0 0.0 38.6817305917 0.0 0.0
12 -23.9175 -6.4440900507 23.4342707726 0.01 1.0 0.0 38.6817305917 0.0 0.0
12 -25.512 -11.0470200507 26.0380759658 0.01 1.0 0.0 38.6817305917 0.0 0.0
12 -25.512 -9.2058500507 28.6418859658 0.01 1.0 0.0 38.6817305917 0.0 0.0
12 -23.9175 -8.2852600507 26.0380759658 0.01 1.0 0.0 38.6817305917 0.0 0.0
12 -23.9175 -6.4440900507 28.6418859658 0.01 1.0 0.0 38.6817305917 0.0 0.0
12 -25.512 -5.5235100253 -20.8304607726 0.01 1.0 0.0 38.6817305917 0.0 0.0
12 -25.512 -3.6823400253 -18.2266507726 0.01 1.0 0.0 38.6817305917 0.0 0.0
12 -23.9175 -2.7617500253 -20.8304607726 0.01 1.0 0.0 38.6817305917 0.0 0.0
12 -23.9175 -0.9205800253 -18.2266507726 0.01 1.0 0.0 38.6817305917 0.0 0.0
12 -25.512 -5.5235100253 -15.6228455795 0.01 1.0 0.0 38.6817305917 0.0 0.0
12 -25.512 -3.6823400253 -13.0190355795 0.01 1.0 0.0 38.6817305917 0.0 0.0
12 -23.9175 -2.7617500253 -15.6228455795 0.01 1.0 0.0 38.6817305917 0.0 0.0
12 -23.9175 -0.9205800253 -13.0190355795 0.01 1.0 0.0 38.6817305917 0.0 0.0
12 -25.512 -5.5235100253 -10.4152303863 0.01 1.0 0.0 38.6817305917 0.0 0.0
12 -25.512 -3.6823400253 -7.8114203863 0.01 1.0 0.0 38.6817305917 0.0 0.0
12 -23.9175 -2.7617500253 -10.4152303863 0.01 1.0 0.0 38.6817305917 0.0 0.0
12 -23.9175 -0.9205800253 -7.8114203863 0.01 1.0 0.0 38.6817305917 0.0 0.0
12 -25.512 -5.5235100253 -5.2076151932 0.01 1.0 0.0 38.6817305917 0.0 0.0
12 -25.512 -3.6823400253 -2.6038051932 0.01 1.0 0.0 38.6817305917 0.0 0.0
12 -23.9175 -2.7617500253 -5.2076151932 0.01 1.0 0.0 38.6817305917 0.0 0.0
12 -23.9175 -0.9205800253 -2.6038051932 0.01 1.0 0.0 38.6817305917 0.0 0.0
12 -25.512 -5.5235100253 0.0 0.01 1.0 0.0 38.6817305917 0.0 0.0
12 -25.512 -3.6823400253 2.60381 0.01 1.0 0.0 38.6817305917 0.0 0.0
12 -23.9175 -2.7617500253 0.0 0.01 1.0 0.0 38.6817305917 0.0 0.0
12 -23.9175 -0.9205800253 2.60381 0.01 1.0 0.0 38.6817305917 0.0 0.0
12 -25.512 -5.5235100253 5.2076151932 0.01 1.0 0.0 38.6817305917 0.0 0.0
12 -25.512 -3.6823400253 7.8114251932 0.01 1.0 0.0 38.6817305917 0.0 0.0
12 -23.9175 -2.7617500253 5.2076151932 0.01 1.0 0.0 38.6817305917 0.0 0.0
12 -23.9175 -0.9205800253 7.8114251932 0.01 1.0 0.0 38.6817305917 0.0 0.0
12 -25.512 -5.5235100253 10.4152303863 0.01 1.0 0.0 38.6817305917 0.0 0.0
12 -25.512 -3.6823400253 13.0190403863 0.01 1.0 0.0 38.6817305917 0.0 0.0
12 -23.9175 -2.7617500253 10.4152303863 0.01 1.0 0.0 38.6817305917 0.0 0.0
12 -23.9175 -0.9205800253 13.0190403863 0.01 1.0 0.0 38.6817305917 0.0 0.0
12 -25.512 -5.5235100253 15.6228455795 0.01 1.0 0.0 38.6817305917 0.0 0.0
12 -25.512 -3.6823400253 18.2266555795 0.01 1.0 0.0 38.6817305917 0.0 0.0
12 -23.9175 -2.7617500253 15.6228455795 0.01 1.0 0.0 38.6817305917 0.0 0.0
12 -23.9175 -0.9205800253 18.2266555795 0.01 1.0 0.0 38.6817305917 0.0 0.0
12 -25.512 -5.5235100253 20.8304607726 0.01 1.0 0.0 38.6817305917 0.0 0.0
12 -25.512 -3.6823400253 23.4342707726 0.01 1.0 0.0 38.6817305917 0.0 0.0
12 -23.9175 -2.7617500253 20.8304607726 0.01 1.0 0.0 38.6817305917 0.0 0.0
12 -23.9175 -0.9205800253 23.4342707726 0.01 1.0 0.0 38.6817305917 0.0 0.0
12 -25.512 -5.5235100253 26.0380759658 0.01 1.0 0.0 38.6817305917 0.0 0.0
12 -25.512 -3.6823400253 28.6418859658 0.01 1.0 0.0 38.6817305917 0.0 0.0
12 -23.9175 -2.7617500253 26.0380759658 0.01 1.0 0.0 38.6817305917 0.0 0.0
12 -23.9175 -0.9205800253 28.6418859658 0.01 1.0 0.0 38.6817305917 0.0 0.0
12 -25.512 0.0 -20.8304607726 0.01 1.0 0.0 38.6817305917 0.0 0.0
12 -25.512 1.84117 -18.2266507726 0.01 1.0 0.0 38.6817305917 0.0 0.0
12 -23.9175 2.76176 -20.8304607726 0.01 1.0 0.0 38.6817305917 0.0 0.0
12 -23.9175 4.60293 -18.2266507726 0.01 1.0 0.0 38.6817305917 0.0 0.0
12 -25.512 0.0 -15.6228455795 0.01 1.0 0.0 38.6817305917 0.0 0.0
12 -25.512 1.84117 -13.0190355795 0.01 1.0 0.0 38.6817305917 0.0 0.0
12 -23.9175 2.76176 -15.6228455795 0.01 1.0 0.0 38.6817305917 0.0 0.0
12 -23.9175 4.60293 -13.0190355795 0.01 1.0 0.0 38.6817305917 0.0 0.0
12 -25.512 0.0 -10.4152303863 0.01 1.0 0.0 38.6817305917 0.0 0.0
12 -25.512 1.84117 -7.8114203863 0.01 1.0 0.0 38.6817305917 0.0 0.0
12 -23.9175 2.76176 -10.4152303863 0.01 1.0 0.0 38.6817305917 0.0 0.0
12 -23.9175 4.60293 -7.8114203863 0.01 1.0 0.0 38.6817305917 0.0 0.0
12 -25.512 0.0 -5.2076151932 0.01 1.0 0.0 38.6817305917 0.0 0.0
12 -25.512 1.84117 -2.6038051932 0.01 1.0 0.0 38.6817305917 0.0 0.0
12 -23.9175 2.76176 -5.2076151932 0.01 1.0 0.0 38.6817305917 0.0 0.0
12 -23.9175 4.60293 -2.6038051932 0.01 1.0 0.0 38.6817305917 0.0 0.0
12 -25.512 0.0 0.0 0.01 1.0 0.0 38.6817305917 0.0 0.0
12 -25.512 1.84117 2.60381 0.01 1.0 0.0 38.6817305917 0.0 0.0
12 -23.9175 2.76176 0.0 0.01 1.0 0.0 38.6817305917 0.0 0.0
12 -23.9175 4.60293 2.60381 0.01 1.0 0.0 38.6817305917 0.0 0.0
12 -25.512 0.0 5.2076151932 0.01 1.0 0.0 38.6817305917 0.0 0.0
12 -25.512 1.84117 7.8114251932 0.01 1.0 0.0 38.6817305917 0.0 0.0
12 -23.9175 2.76176 5.2076151932 0.01 1.0 0.0 38.6817305917 0.0 0.0
12 -23.9175 4.60293 7.8114251932 0.01 1.0 0.0 38.6817305917 0.0 0.0
12 -25.512 0.0 10.4152303863 0.01 1.0 0.0 38.6817305917 0.0 0.0
12 -25.512 1.84117 13.0190403863 0.01 1.0 0.0 38.6817305917 0.0 0.0
12 -23.9175 2.76176 10.4152303863 0.01 1.0 0.0 38.6817305917 0.0 0.0
12 -23.9175 4.60293 13.0190403863 0.01 1.0 0.0 38.6817305917 0.0 0.0
12 -25.512 0.0 15.6228455795 0.01 1.0 0.0 38.6817305917 0.0 0.0
12 -25.512 1.84117 18.2266555795 0.01 1.0 0.0 38.6817305917 0.0 0.0
12 -23.9175 2.76176 15.6228455795 0.01 1.0 0.0 38.6817305917 0.0 0.0
12 -23.9175 4.60293 18.2266555795 0.01 1.0 0.0 38.6817305917 0.0 0.0
12 -25.512 0.0 20.8304607726 0.01 1.0 0.0 38.6817305917 0.0 0.0
12 -25.512 1.84117 23.4342707726 0.01 1.0 0.0 38.6817305917 0.0 0.0
12 -23.9175 2.76176 20.8304607726 0.01 1.0 0.0 38.6817305917 0.0 0.0
12 -23.9175 4.60293 23.4342707726 0.01 1.0 0.0 38.6817305917 0.0 0.0
12 -25.512 0.0 26.0380759658 0.01 1.0 0.0 38.6817305917 0.0 0.0
12 -25.512 1.84117 28.6418859658 0.01 1.0 0.0 38.6817305917 0.0 0.0
12 -23.9175 2.76176 26.0380759658 0.01 1.0 0.0 38.6817305917 0.0 0.0
12 -23.9175 4.60293 28.6418859658 0.01 1.0 0.0 38.6817305917 0.0 0.0
12 -25.512 5.5235100253 -20.8304607726 0.01 1.0 0.0 38.6817305917 0.0 0.0
12 -25.512 7.3646800253 -18.2266507726 0.01 1.0 0.0 38.6817305917 0.0 0.0
12 -23.9175 8.2852700253 -20.8304607726 0.01 1.0 0.0 38.6817305917 0.0 0.0
12 -23.9175 10.1264400253 -18.2266507726 0.01 1.0 0.0 38.6817305917 0.0 0.0
12 -25.512 5.5235100253 -15.6228455795 0.01 1.0 0.0 38.6817305917 0.0 0.0
12 -25.512 7.3646800253 -13.0190355795 0.01 1.0 0.0 38.6817305917 0.0 0.0
12 -23.9175 8.2852700253 -15.6228455795 0.01 1.0 0.0 38.6817305917 0.0 0.0
12 -23.9175 10.1264400253 -13.0190355795 0.01 1.0 0.0 38.6817305917 0.0 0.0
12 -25.512 5.5235100253 -10.4152303863 0.01 1.0 0.0 38.6817305917 0.0 0.0
12 -25.512 7.3646800253 -7.8114203863 0.01 1.0 0.0 38.6817305917 0.0 0.0
12 -23.9175 8.2852700253 -10.4152303863 0.01 1.0 0.0 38.6817305917 0.0 0.0
12 -23.9175 10.1264400253 -7.8114203863 0.01 1.0 0.0 38.6817305917 0.0 0.0
12 -25.512 5.5235100253 -5.2076151932 0.01 1.0 0.0 38.6817305917 0.0 0.0
12 -25.512 7.3646800253 -2.6038051932 0.01 1.0 0.0 38.6817305917 0.0 0.0
12 -23.9175 8.2852700253 -5.2076151932 0.01 1.0 0.0 38.6817305917 0.0 0.0
12 -23.9175 10.1264400253 -2.6038051932 0.01 1.0 0.0 38.6817305917 0.0 0.0
12 -25.512 5.5235100253 0.0 0.01 1.0 0.0 38.6817305917 0.0 0.0
12 -25.512 7.3646800253 2.60381 0.01 1.0 0.0 38.6817305917 0.0 0.0
12 -23.9175 8.2852700253 0.0 0.01 1.0 0.0 38.6817305917 0.0 0.0
12 -23.9175 10.1264400253 2.60381 0.01 1.0 0.0 38.6817305917 0.0 0.0
12 -25.512 5.5235100253 5.2076151932 0.01 1.0 0.0 38.6817305917 0.0 0.0
12 -25.512 7.3646800253 7.8114251932 0.01 1.0 0.0 38.6817305917 0.0 0.0
12 -23.9175 8.2852700253 5.2076151932 0.01 1.0 0.0 38.6817305917 0.0 0.0
12 -23.9175 10.1264400253 7.8114251932 0.01 1.0 0.0 38.6817305917 0.0 0.0
12 -25.512 5.5235100253 10.4152303863 0.01 1.0 0.0 38.6817305917 0.0 0.0
12 -25.512 7.3646800253 13.0190403863 0.01 1.0 0.0 38.6817305917 0.0 0.0
12 -23.9175 8.2852700253 10.4152303863 0.01 1.0 0.0 38.6817305917 0.0 0.0
12 -23.9175 10.1264400253 13.0190403863 0.01 1.0 0.0 38.6817305917 0.0 0.0
12 -25.512 5.5235100253 15.6228455795 0.01 1.0 0.0 38.6817305917 0.0 0.0
12 -25.512 7.3646800253 18.2266555795 0.01 1.0 0.0 38.6817305917 0.0 0.0
12 -23.9175 8.2852700253 15.6228455795 0.01 1.0 0.0 38.6817305917 0.0 0.0
12 -23.9175 10.1264400253 18.2266555795 0.01 1.0 0.0 38.6817305917 0.0 0.0
12 -25.512 5.5235100253 20.8304607726 0.01 1.0 0.0 38.6817305917 0.0 0.0
12 -25.512 7.3646800253 23.4342707726 0.01 1.0 0.0 38.6817305917 0.0 0.0
12 -23.9175 8.2852700253 20.8304607726 0.01 1.0 0.0 38.6817305917 0.0 0.0
12 -23.9175 10.1264400253 23.4342707726 0.01 1.0 0.0 38.6817305917 0.0 0.0
12 -25.512 5.5235100253 26.0380759658 0.01 1.0 0.0 38.6817305917 0.0 0.0
12 -25.512 7.3646800253 28.6418859658 0.01 1.0 0.0 38.6817305917 0.0 0.0
12 -23.9175 8.2852700253 26.0380759658 0.01 1.0 0.0 38.6817305917 0.0 0.0
12 -23.9175 10.1264400253 28.6418859658 0.01 1.0 0.0 38.6817305917 0.0 0.0
12 -25.512 11.0470200507 -20.8304607726 0.01 1.0 0.0 38.6817305917 0.0 0.0
12 -25.512 12.8881900507 -18.2266507726 0.01 1.0 0.0 38.6817305917 0.0 0.0
12 -23.9175 13.8087800507 -20.8304607726 0.01 1.0 0.0 38.6817305917 0.0 0.0
12 -23.9175 15.6499500507 -18.2266507726 0.01 1.0 0.0 38.6817305917 0.0 0.0
12 -25.512 11.0470200507 -15.6228455795 0.01 1.0 0.0 38.6817305917 0.0 0.0
12 -25.512 12.8881900507 -13.0190355795 0.01 1.0 0.0 38.6817305917 0.0 0.0
12 -23.9175 13.8087800507 -15.6228455795 0.01 1.0 0.0 38.6817305917 0.0 0.0
12 -23.9175 15.6499500507 -13.0190355795 0.01 1.0 0.0 38.6817305917 0.0 0.0
12 -25.512 11.0470200507 -10.4152303863 0.01 1.0 0.0 38.6817305917 0.0 0.0
12 -25.512 12.8881900507 -7.8114203863 0.01 1.0 0.0 38.6817305917 0.0 0.0
12 -23.9175 13.8087800507 -10.4152303863 0.01 1.0 0.0 38.6817305917 0.0 0.0
12 -23.9175 15.6499500507 -7.8114203863 0.01 1.0 0.0 38.6817305917 0.0 0.0
12 -25.512 11.0470200507 -5.2076151932 0.01 1.0 0.0 38.6817305917 0.0 0.0
12 -25.512 12.8881900507 -2.6038051932 0.01 1.0 0.0 38.6817305917 0.0 0.0
12 -23.9175 13.8087800507 -5.2076151932 0.01 1.0 0.0 38.6817305917 0.0 0.0
12 -23.9175 15.6499500507 -2.6038051932 0.01 1.0 0.0 38.6817305917 0.0 0.0
12 -25.512 11.0470200507 0.0 0.01 1.0 0.0 38.6817305917 0.0 0.0
12 -25.512 12.8881900507 2.60381 0.01 1.0 0.0 38.6817305917 0.0 0.0
12 -23.9175 13.8087800507 0.0 0.01 1.0 0.0 38.6817305917 0.0 0.0
12 -23.9175 15.6499500507 2.60381 0.01 1.0 0.0 38.6817305917 0.0 0.0
12 -25.512 11.0470200507 5.2076151932 0.01 1.0 0.0 38.6817305917 0.0 0.0
12 -25.512 12.8881900507 7.8114251932 0.01 1.0 0.0 38.6817305917 0.0 0.0
12 -23.9175 13.8087800507 5.2076151932 0.01 1.0 0.0 38.6817305917 0.0 0.0
12 -23.9175 15.6499500507 7.8114251932 0.01 1.0 0.0 38.6817305917 0.0 0.0
12 -25.512 11.0470200507 10.4152303863 0.01 1.0 0.0 38.6817305917 0.0 0.0
12 -25.512 12.8881900507 13.0190403863 0.01 1.0 0.0 38.6817305917 0.0 0.0
12 -23.9175 13.8087800507 10.4152303863 0.01 1.0 0.0 38.6817305917 0.0 0.0
12 -23.9175 15.6499500507 13.0190403863 0.01 1.0 0.0 38.6817305917 0.0 0.0
12 -25.512 11.0470200507 15.6228455795 0.01 1.0 0.0 38.6817305917 0.0 0.0
12 -25.512 12.8881900507 18.2266555795 0.01 1.0 0.0 38.6817305917 0.0 0.0
12 -23.9175 13.8087800507 15.6228455795 0.01 1.0 0.0 38.6817305917 0.0 0.0
12 -23.9175 15.6499500507 18.2266555795 0.01 1.0 0.0 38.6817305917 0.0 0.0
12 -25.512 11.0470200507 20.8304607726 0.01 1.0 0.0 38.6817305917 0.0 0.0
12 -25.512 12.8881900507 23.4342707726 0.01 1.0 0.0 38.6817305917 0.0 0.0
12 -23.9175 13.8087800507 20.8304607726 0.01 1.0 0.0 38.6817305917 0.0 0.0
12 -23.9175 15.6499500507 23.4342707726 0.01 1.0 0.0 38.6817305917 0.0 0.0
12 -25.512 11.0470200507 26.0380759658 0.01 1.0 0.0 38.6817305917 0.0 0.0
12 -25.512 12.8881900507 28.6418859658 0.01 1.0 0.0 38.6817305917 0.0 0.0
12 -23.9175 13.8087800507 26.0380759658 0.01 1.0 0.0 38.6817305917 0.0 0.0
12 -23.9175 15.6499500507 28.6418859658 0.01 1.0 0.0 38.6817305917 0.0 0.0
12 -25.512 16.570530076 -20.8304607726 0.01 1.0 0.0 38.6817305917 0.0 0.0
12 -25.512 18.411700076 -18.2266507726 0.01 1.0 0.0 38.6817305917 0.0 0.0
12 -23.9175 19.332290076 -20.8304607726 0.01 1.0 0.0 38.6817305917 0.0 0.0
12 -23.9175 21.173460076 -18.2266507726 0.01 1.0 0.0 38.6817305917 0.0 0.0
12 -25.512 16.570530076 -15.6228455795 0.01 1.0 0.0 38.6817305917 0.0 0.0
12 -25.512 18.411700076 -13.0190355795 0.01 1.0 0.0 38.6817305917 0.0 0.0
12 -23.9175 19.332290076 -15.6228455795 0.01 1.0 0.0 38.6817305917 0.0 0.0
12 -23.9175 21.173460076 -13.0190355795 0.01 1.0 0.0 38.6817305917 0.0 0.0
12 -25.512 16.570530076 -10.4152303863 0.01 1.0 0.0 38.6817305917 0.0 0.0
12 -25.512 18.411700076 -7.8114203863 0.01 1.0 0.0 38.6817305917 0.0 0.0
12 -23.9175 19.332290076 -10.4152303863 0.01 1.0 0.0 38.6817305917 0.0 0.0
12 -23.9175 21.173460076 -7.8114203863 0.01 1.0 0.0 38.6817305917 0.0 0.0
12 -25.512 16.570530076 -5.2076151932 0.01 1.0 0.0 38.6817305917 0.0 0.0
12 -25.512 18.411700076 -2.6038051932 0.01 1.0 0.0 38.6817305917 0.0 0.0
12 -23.9175 19.332290076 -5.2076151932 0.01 1.0 0.0 38.6817305917 0.0 0.0
12 -23.9175 21.173460076 -2.6038051932 0.01 1.0 0.0 38.6817305917 0.0 0.0
12 -25.512 16.570530076 0.0 0.01 1.0 0.0 38.6817305917 0.0 0.0
12 -25.512 18.411700076 2.60381 0.01 1.0 0.0 38.6817305917 0.0 0.0
12 -23.9175 19.332290076 0.0 0.01 1.0 0.0 38.6817305917 0.0 0.0
12 -23.9175 21.173460076 2.60381 0.01 1.0 0.0 38.6817305917 0.0 0.0
12 -25.512 16.570530076 5.2076151932 0.01 1.0 0.0 38.6817305917 0.0 0.0
12 -25.512 18.411700076 7.8114251932 0.01 1.0 0.0 38.6817305917 0.0 0.0
12 -23.9175 19.332290076 5.2076151932 0.01 1.0 0.0 38.6817305917 0.0 0.0
12 -23.9175 21.173460076 7.8114251932 0.01 1.0 0.0 38.6817305917 0.0 0.0
12 -25.512 16.570530076 10.4152303863 0.01 1.0 0.0 38.6817305917 0.0 0.0
12 -25.512 18.411700076 13.0190403863 0.01 1.0 0.0 38.6817305917 0.0 0.0
12 -23.9175 19.332290076 10.4152303863 0.01 1.0 0.0 38.6817305917 0.0 0.0
12 -23.9175 21.173460076 13.0190403863 0.01 1.0 0.0 38.6817305917 0.0 0.0
12 -25.512 16.570530076 15.6228455795 0.01 1.0 0.0 38.6817305917 0.0 0.0
12 -25.512 18.411700076 18.2266555795 0.01 1.0 0.0 38.6817305917 0.0 0.0
12 -23.9175 19.332290076 15.6228455795 0.01 1.0 0.0 38.6817305917 0.0 0.0
12 -23.9175 21.173460076 18.2266555795 0.01 1.0 0.0 38.6817305917 0.0 0.0
12 -25.512 16.570530076 20.8304607726 0.01 1.0 0.0 38.6817305917 0.0 0.0
12 -25.512 18.411700076 23.4342707726 0.01 1.0 0.0 38.6817305917 0.0 0.0
12 -23.9175 19.332290076 20.8304607726 0.01 1.0 0.0 38.6817305917 0.0 0.0
12 -23.9175 21.173460076 23.4342707726 0.01 1.0 0.0 38.6817305917 0.0 0.0
12 -25.512 16.570530076 26.0380759658 0.01 1.0 0.0 38.6817305917 0.0 0.0
12 -25.512 18.411700076 28.6418859658 0.01 1.0 0.0 38.6817305917 0.0 0.0
12 -23.9175 19.332290076 26.0380759658 0.01 1.0 0.0 38.6817305917 0.0 0.0
12 -23.9175 21.173460076 28.6418859658 0.01 1.0 0.0 38.6817305917 0.0 0.0
12 -25.512 22.0940401013 -20.8304607726 0.01 1.0 0.0 38.6817305917 0.0 0.0
12 -25.512 23.9352101013 -18.2266507726 0.01 1.0 0.0 38.6817305917 0.0 0.0
12 -23.9175 24.8558001013 -20.8304607726 0.01 1.0 0.0 38.6817305917 0.0 0.0
12 -23.9175 26.6969701013 -18.2266507726 0.01 1.0 0.0 38.6817305917 0.0 0.0
12 -25.512 22.0940401013 -15.6228455795 0.01 1.0 0.0 38.6817305917 0.0 0.0
12 -25.512 23.9352101013 -13.0190355795 0.01 1.0 0.0 38.6817305917 0.0 0.0
12 -23.9175 24.8558001013 -15.6228455795 0.01 1.0 0.0 38.6817305917 0.0 0.0
12 -23.9175 26.6969701013 -13.0190355795 0.01 1.0 0.0 38.6817305917 0.0 0.0
12 -25.512 22.0940401013 -10.4152303863 0.01 1.0 0.0 38.6817305917 0.0 0.0
12 -25.512 23.9352101013 -7.8114203863 0.01 1.0 0.0 38.6817305917 0.0 0.0
12 -23.9175 24.8558001013 -10.4152303863 0.01 1.0 0.0 38.6817305917 0.0 0.0
12 -23.9175 26.6969701013 -7.8114203863 0.01 1.0 0.0 38.6817305917 0.0 0.0
12 -25.512 22.0940401013 -5.2076151932 0.01 1.0 0.0 38.6817305917 0.0 0.0
12 -25.512 23.9352101013 -2.6038051932 0.01 1.0 0.0 38.6817305917 0.0 0.0
12 -23.9175 24.8558001013 -5.2076151932 0.01 1.0 0.0 38.6817305917 0.0 0.0
12 -23.9175 26.6969701013 -2.6038051932 0.01 1.0 0.0 38.6817305917 0.0 0.0
12 -25.512 22.0940401013 0.0 0.01 1.0 0.0 38.6817305917 0.0 0.0
12 -25.512 23.9352101013 2.60381 0.01 1.0 0.0 38.6817305917 0.0 0.0
12 -23.9175 24.8558001013 0.0 0.01 1.0 0.0 38.6817305917 0.0 0.0
12 -23.9175 26.6969701013 2.60381 0.01 1.0 0.0 38.6817305917 0.0 0.0
12 -25.512 22.0940401013 5.2076151932 0.01 1.0 0.0 38.6817305917 0.0 0.0
12 -25.512 23.9352101013 7.8114251932 0.01 1.0 0.0 38.6817305917 0.0 0.0
12 -23.9175 24.8558001013 5.2076151932 0.01 1.0 0.0 38.6817305917 0.0 0.0
12 -23.9175 26.6969701013 7.8114251932 0.01 1.0 0.0 38.6817305917 0.0 0.0
12 -25.512 22.0940401013 10.4152303863 0.01 1.0 0.0 38.6817305917 0.0 0.0
12 -25.512 23.9352101013 13.0190403863 0.01 1.0 0.0 38.6817305917 0.0 0.0
12 -23.9175 24.8558001013 10.4152303863 0.01 1.0 0.0 38.6817305917 0.0 0.0
12 -23.9175 26.6969701013 13.0190403863 0.01 1.0 0.0 38.6817305917 0.0 0.0
12 -25.512 22.0940401013 15.6228455795 0.01 1.0 0.0 38.6817305917 0.0 0.0
12 -25.512 23.9352101013 18.2266555795 0.01 1.0 0.0 38.6817305917 0.0 0.0
12 -23.9175 24.8558001013 15.6228455795 0.01 1.0 0.0 38.6817305917 0.0 0.0
12 -23.9175 26.6969701013 18.2266555795 0.01 1.0 0.0 38.6817305917 0.0 0.0
12 -25.512 22.0940401013 20.8304607726 0.01 1.0 0.0 38.6817305917 0.0 0.0
12 -25.512 23.9352101013 23.4342707726 0.01 1.0 0.0 38.6817305917 0.0 0.0
12 -23.9175 24.8558001013 20.8304607726 0.01 1.0 0.0 38.6817305917 0.0 0.0
12 -23.9175 26.6969701013 23.4342707726 0.01 1.0 0.0 38.6817305917 0.0 0.0
12 -25.512 22.0940401013 26.0380759658 0.01 1.0 0.0 38.6817305917 0.0 0.0
12 -25.512 23.9352101013 28.6418859658 0.01 1.0 0.0 38.6817305917 0.0 0.0
12 -23.9175 24.8558001013 26.0380759658 0.01 1.0 0.0 38.6817305917 0.0 0.0
12 -23.9175 26.6969701013 28.6418859658 0.01 1.0 0.0 38.6817305917 0.0 0.0
12 -25.512 27.6175501267 -20.8304607726 0.01 1.0 0.0 38.6817305917 0.0 0.0
12 -25.512 29.4587201267 -18.2266507726 0.01 1.0 0.0 38.6817305917 0.0 0.0
12 -23.9175 30.3793101267 -20.8304607726 0.01 1.0 0.0 38.6817305917 0.0 0.0
12 -23.9175 32.2204801267 -18.2266507726 0.01 1.0 0.0 38.6817305917 0.0 0.0
12 -25.512 27.6175501267 -15.6228455795 0.01 1.0 0.0 38.6817305917 0.0 0.0
12 -25.512 29.4587201267 -13.0190355795 0.01 1.0 0.0 38.6817305917 0.0 0.0
12 -23.9175 30.3793101267 -15.6228455795 0.01 1.0 0.0 38.6817305917 0.0 0.0
12 -23.9175 32.2204801267 -13.0190355795 0.01 1.0 0.0 38.6817305917 0.0 0.0
12 -25.512 27.6175501267 -10.4152303863 0.01 1.0 0.0 38.6817305917 0.0 0.0
12 -25.512 29.4587201267 -7.8114203863 0.01 1.0 0.0 38.6817305917 0.0 0.0
12 -23.9175 30.3793101267 -10.4152303863 0.01 1.0 0.0 38.6817305917 0.0 0.0
12 -23.9175 32.2204801267 -7.8114203863 0.01 1.0 0.0 38.6817305917 0.0 0.0
12 -25.512 27.6175501267 -5.2076151932 0.01 1.0 0.0 38.6817305917 0.0 0.0
12 -25.512 29.4587201267 -2.6038051932 0.01 1.0 0.0 38.6817305917 0.0 0.0
12 -23.9175 30.3793101267 -5.2076151932 0.01 1.0 0.0 38.6817305917 0.0 0.0
12 -23.9175 32.2204801267 -2.6038051932 0.01 1.0 0.0 38.6817305917 0.0 0.0
12 -25.512 27.6175501267 0.0 0.01 1.0 0.0 38.6817305917 0.0 0.0
12 -25.512 29.4587201267 2.60381 0.01 1.0 0.0 38.6817305917 0.0 0.0
12 -23.9175 30.3793101267 0.0 0.01 1.0 0.0 38.6817305917 0.0 0.0
12 -23.9175 32.2204801267 2.60381 0.01 1.0 0.0 38.6817305917 0.0 0.0
12 -25.512 27.6175501267 5.2076151932 0.01 1.0 0.0 38.6817305917 0.0 0.0
12 -25.512 29.4587201267 7.8114251932 0.01 1.0 0.0 38.6817305917 0.0 0.0
12 -23.9175 30.3793101267 5.2076151932 0.01 1.0 0.0 38.6817305917 0.0 0.0
12 -23.9175 32.2204801267 7.8114251932 0.01 1.0 0.0 38.6817305917 0.0 0.0
12 -25.512 27.6175501267 10.4152303863 0.01 1.0 0.0 38.6817305917 0.0 0.0
12 -25.512 29.4587201267 13.0190403863 0.01 1.0 0.0 38.6817305917 0.0 0.0
12 -23.9175 30.3793101267 10.4152303863 0.01 1.0 0.0 38.6817305917 0.0 0.0
12 -23.9175 32.2204801267 13.0190403863 0.01 1.0 0.0 38.6817305917 0.0 0.0
12 -25.512 27.6175501267 15.6228455795 0.01 1.0 0.0 38.6817305917 0.0 0.0
12 -25.512 29.4587201267 18.2266555795 0.01 1.0 0.0 38.6817305917 0.0 0.0
12 -23.9175 30.3793101267 15.6228455795 0.01 1.0 0.0 38.6817305917 0.0 0.0
12 -23.9175 32.2204801267 18.2266555795 0.01 1.0 0.0 38.6817305917 0.0 0.0
12 -25.512 27.6175501267 20.8304607726 0.01 1.0 0.0 38.6817305917 0.0 0.0
12 -25.512 29.4587201267 23.4342707726 0.01 1.0 0.0 38.6817305917 0.0 0.0
12 -23.9175 30.3793101267 20.8304607726 0.01 1.0 0.0 38.6817305917 0.0 0.0
12 -23.9175 32.2204801267 23.4342707726 0.01 1.0 0.0 38.6817305917 0.0 0.0
12 -25.512 27.6175501267 26.0380759658 0.01 1.0 0.0 38.6817305917 0.0 0.0
12 -25.512 29.4587201267 28.6418859658 0.01 1.0 0.0 38.6817305917 0.0 0.0
12 -23.9175 30.3793101267 26.0380759658 0.01 1.0 0.0 38.6817305917 0.0 0.0
12 -23.9175 32.2204801267 28.6418859658 0.01 1.0 0.0 38.6817305917 0.0 0.0
12 -22.323 -22.0940401013 -20.8304607726 0.01 1.0 0.0 38.6817305917 0.0 0.0
12 -22.323 -20.2528701013 -18.2266507726 0.01 1.0 0.0 38.6817305917 0.0 0.0
12 -20.7285 -19.3322801013 -20.8304607726 0.01 1.0 0.0 38.6817305917 0.0 0.0
12 -20.7285 -17.4911101013 -18.2266507726 0.01 1.0 0.0 38.6817305917 0.0 0.0
12 -22.323 -22.0940401013 -15.6228455795 0.01 1.0 0.0 38.6817305917 0.0 0.0
12 -22.323 -20.2528701013 -13.0190355795 0.01 1.0 0.0 38.6817305917 0.0 0.0