ITEM: TIMESTEP
0
ITEM: NUMBER OF ATOMS
18000
ITEM: BOX BOUNDS ff ff ff
-22.323 41.457
-38.6645701774 44.1880802027
-36.4533063521 41.6609215453
ITEM: ATOMS type x y z stdvq molarfraction chemicalmultp thermalmultp chemicalmultpbcc thermalmultpbcc
12 -22.323 -38.6645701774 -36.4533063521 0.01 1.0 0.0 38.6817305917 0.0 0.0
12 -22.323 -36.8234001774 -33.8494963521 0.01 1.0 0.0 38.6817305917 0.0 0.0
12 -20.7285 -35.9028101774 -36.4533063521 0.01 1.0 0.0 38.6817305917 0.0 0.0
12 -20.7285 -34.0616401774 -33.8494963521 0.01 1.0 0.0 38.6817305917 0.0 0.0
12 -22.323 -38.6645701774 -31.245691159 0.01 1.0 0.0 38.6817305917 0.0 0.0
12 -22.323 -36.8234001774 -28.641881159 0.01 1.0 0.0 38.6817305917 0.0 0.0
12 -20.7285 -35.9028101774 -31.245691159 0.01 1.0 0.0 38.6817305917 0.0 0.0
12 -20.7285 -34.0616401774 -28.641881159 0.01 1.0 0.0 38.6817305917 0.0 0.0
12 -22.323 -38.6645701774 -26.0380759658 0.01 1.0 0.0 38.6817305917 0.0 0.0
12 -22.323 -36.8234001774 -23.4342659658 0.01 1.0 0.0 38.6817305917 0.0 0.0
12 -20.7285 -35.9028101774 -26.0380759658 0.01 1.0 0.0 38.6817305917 0.0 0.0
12 -20.7285 -34.0616401774 -23.4342659658 0.01 1.0 0.0 38.6817305917 0.0 0.0
12 -22.323 -38.6645701774 -20.8304607726 0.01 1.0 0.0 38.6817305917 0.0 0.0
12 -22.323 -36.8234001774 -18.2266507726 0.01 1.0 0.0 38.6817305917 0.0 0.0
12 -20.7285 -35.9028101774 -20.8304607726 0.01 1.0 0.0 38.6817305917 0.0 0.0
12 -20.7285 -34.0616401774 -18.2266507726 0.01 1.0 0.0 38.6817305917 0.0 0.0
12 -22.323 -38.6645701774 -15.6228455795 0.01 1.0 0.0 38.6817305917 0.0 0.0
12 -22.323 -36.8234001774 -13.0190355795 0.01 1.0 0.0 38.6817305917 0.0 0.0
12 -20.7285 -35.9028101774 -15.6228455795 0.01 1.0 0.0 38.6817305917 0.0 0.0
12 -20.7285 -34.0616401774 -13.0190355795 0.01 1.0 0.0 38.6817305917 0.0 0.0
12 -22.323 -33.141060152 -36.4533063521 0.01 1.0 0.0 38.6817305917 0.0 0.0
12 -22.323 -31.299890152 -33.8494963521 0.01 1.0 0.0 38.6817305917 0.0 0.0
12 -20.7285 -30.379300152 -36.4533063521 0.01 1.0 0.0 38.6817305917 0.0 0.0
12 -20.7285 -28.538130152 -33.8494963521 0.01 1.0 0.0 38.6817305917 0.0 0.0
12 -22.323 -33.141060152 -31.245691159 0.01 1.0 0.0 38.6817305917 0.0 0.0
12 -22.323 -31.299890152 -28.641881159 0.01 1.0 0.0 38.6817305917 0.0 0.0
12 -20.7285 -30.379300152 -31.245691159 0.01 1.0 0.0 38.6817305917 0.0 0.0
12 -20.7285 -28.538130152 -28.641881159 0.01 1.0 0.0 38.6817305917 0.0 0.0
12 -22.323 -33.141060152 -26.0380759658 0.01 1.0 0.0 38.6817305917 0.0 0.0
12 -22.323 -31.299890152 -23.4342659658 0.01 1.0 0.0 38.6817305917 0.0 0.0
12 -20.7285 -30.379300152 -26.0380759658 0.01 1.0 0.0 38.6817305917 0.0 0.0
12 -20.7285 -28.538130152 -23.4342659658 0.01 1.0 0.0 38.6817305917 0.0 0.0
12 -22.323 -33.141060152 -20.8304607726 0.01 1.0 0.0 38.6817305917 0.0 0.0
12 -22.323 -31.299890152 -18.2266507726 0.01 1.0 0.0 38.6817305917 0.0 0.0
12 -20.7285 -30.379300152 -20.8304607726 0.01 1.0 0.0 38.6817305917 0.0 0.0
12 -20.7285 -28.538130152 -18.2266507726 0.01 1.0 0.0 38.6817305917 0.0 0.0
12 -22.323 -33.141060152 -15.6228455795 0.01 1.0 0.0 38.6817305917 0.0 0.0
12 -22.323 -31.299890152 -13.0190355795 0.01 1.0 0.0 38.6817305917 0.0 0.0
12 -20.7285 -30.379300152 -15.6228455795 0.01 1.0 0.0 38.6817305917 0.0 0.0
12 -20.7285 -28.538130152 -13.0190355795 0.01 1.0 0.0 38.6817305917 0.0 0.0
12 -22.323 -27.6175501267 -36.4533063521 0.01 1.0 0.0 38.6817305917 0.0 0.0
12 -22.323 -25.7763801267 -33.8494963521 0.01 1.0 0.0 38.6817305917 0.0 0.0
12 -20.7285 -24.8557901267 -36.4533063521 0.01 1.0 0.0 38.6817305917 0.0 0.0
12 -20.7285 -23.0146201267 -33.8494963521 0.01 1.0 0.0 38.6817305917 0.0 0.0
12 -22.323 -27.6175501267 -31.245691159 0.01 1.0 0.0 38.6817305917 0.0 0.0
12 -22.323 -25.7763801267 -28.641881159 0.01 1.0 0.0 38.6817305917 0.0 0.0
12 -20.7285 -24.8557901267 -31.245691159 0.01 1.0 0.0 38.6817305917 0.0 0.0
12 -20.7285 -23.0146201267 -28.641881159 0.01 1.0 0.0 38.6817305917 0.0 0.0
12 -22.323 -27.6175501267 -26.0380759658 0.01 1.0 0.0 38.6817305917 0.0 0.0
12 -22.323 -25.7763801267 -23.4342659658 0.01 1.0 0.0 38.6817305917 0.0 0.0
12 -20.7285 -24.8557901267 -26.0380759658 0.01 1.0 0.0 38.6817305917 0.0 0.0
12 -20.7285 -23.0146201267 -23.4342659658 0.01 1.0 0.0 38.6817305917 0.0 0.0
12 -22.323 -27.6175501267 -20.8304607726 0.01 1.0 0.0 38.6817305917 0.0 0.0
12 -22.323 -25.7763801267 -18.2266507726 0.01 1.0 0.0 38.6817305917 0.0 0.0
12 -20.7285 -24.8557901267 -20.8304607726 0.01 1.0 0.0 38.6817305917 0.0 0.0
12 -20.7285 -23.0146201267 -18.2266507726 0.01 1.0 0.0 38.6817305917 0.0 0.0
12 -22.323 -27.6175501267 -15.6228455795 0.01 1.0 0.0 38.6817305917 0.0 0.0
12 -22.323 -25.7763801267 -13.0190355795 0.01 1.0 0.0 38.6817305917 0.0 0.0
12 -20.7285 -24.8557901267 -15.6228455795 0.01 1.0 0.0 38.6817305917 0.0 0.0
12 -20.7285 -23.0146201267 -13.0190355795 0.01 1.0 0.0 38.6817305917 0.0 0.0
12 -22.323 -22.0940401014 -36.4533063521 0.01 1.0 0.0 38.6817305917 0.0 0.0
12 -22.323 -20.2528701014 -33.8494963521 0.01 1.0 0.0 38.6817305917 0.0 0.0
12 -20.7285 -19.3322801014 -36.4533063521 0.01 1.0 0.0 38.6817305917 0.0 0.0
12 -20.7285 -17.4911101014 -33.8494963521 0.01 1.0 0.0 38.6817305917 0.0 0.0
12 -22.323 -22.0940401014 -31.245691159 0.01 1.0 0.0 38.6817305917 0.0 0.0
12 -22.323 -20.2528701014 -28.641881159 0.01 1.0 0.0 38.6817305917 0.0 0.0
12 -20.7285 -19.3322801014 -31.245691159 0.01 1.0 0.0 38.6817305917 0.0 0.0
12 -20.7285 -17.4911101014 -28.641881159 0.01 1.0 0.0 38.6817305917 0.0 0.0
12 -22.323 -22.0940401014 -26.0380759658 0.01 1.0 0.0 38.6817305917 0.0 0.0
12 -22.323 -20.2528701014 -23.4342659658 0.01 1.0 0.0 38.6817305917 0.0 0.0
12 -20.7285 -19.3322801014 -26.0380759658 0.01 1.0 0.0 38.6817305917 0.0 0.0
12 -20.7285 -17.4911101014 -23.4342659658 0.01 1.0 0.0 38.6817305917 0.0 0.0
12 -22.323 -22.0940401014 -20.8304607726 0.01 1.0 0.0 38.6817305917 0.0 0.0
12 -22.323 -20.2528701014 -18.2266507726 0.01 1.0 0.0 38.6817305917 0.0 0.0
12 -20.7285 -19.3322801014 -20.8304607726 0.01 1.0 0.0 38.6817305917 0.0 0.0
12 -20.7285 -17.4911101014 -18.2266507726 0.01 1.0 0.0 38.6817305917 0.0 0.0
12 -22.323 -22.0940401014 -15.6228455795 0.01 1.0 0.0 38.6817305917 0.0 0.0
12 -22.323 -20.2528701014 -13.0190355795 0.01 1.0 0.0 38.6817305917 0.0 0.0
12 -20.7285 -19.3322801014 -15.6228455795 0.01 1.0 0.0 38.6817305917 0.0 0.0
12 -20.7285 -17.4911101014 -13.0190355795 0.01 1.0 0.0 38.6817305917 0.0 0.0
12 -22.323 -16.570530076 -36.4533063521 0.01 1.0 0.0 38.6817305917 0.0 0.0
12 -22.323 -14.729360076 -33.8494963521 0.01 1.0 0.0 38.6817305917 0.0 0.0
12 -20.7285 -13.808770076 -36.4533063521 0.01 1.0 0.0 38.6817305917 0.0 0.0
12 -20.7285 -11.967600076 -33.8494963521 0.01 1.0 0.0 38.6817305917 0.0 0.0
12 -22.323 -16.570530076 -31.245691159 0.01 1.0 0.0 38.6817305917 0.0 0.0
12 -22.323 -14.729360076 -28.641881159 0.01 1.0 0.0 38.6817305917 0.0 0.0
12 -20.7285 -13.808770076 -31.245691159 0.01 1.0 0.0 38.6817305917 0.0 0.0
12 -20.7285 -11.967600076 -28.641881159 0.01 1.0 0.0 38.6817305917 0.0 0.0
12 -22.323 -16.570530076 -26.0380759658 0.01 1.0 0.0 38.6817305917 0.0 0.0
12 -22.323 -14.729360076 -23.4342659658 0.01 1.0 0.0 38.6817305917 0.0 0.0
12 -20.7285 -13.808770076 -26.0380759658 0.01 1.0 0.0 38.6817305917 0.0 0.0
12 -20.7285 -11.967600076 -23.4342659658 0.01 1.0 0.0 38.6817305917 0.0 0.0
12 -22.323 -16.570530076 -20.8304607726 0.01 1.0 0.0 38.6817305917 0.0 0.0
12 -22.323 -14.729360076 -18.2266507726 0.01 1.0 0.0 38.6817305917 0.0 0.0
12 -20.7285 -13.808770076 -20.8304607726 0.01 1.0 0.0 38.6817305917 0.0 0.0
12 -20.7285 -11.967600076 -18.2266507726 0.01 1.0 0.0 38.6817305917 0.0 0.0
12 -22.323 -16.570530076 -15.6228455795 0.01 1.0 0.0 38.6817305917 0.0 0.0
12 -22.323 -14.729360076 -13.0190355795 0.01 1.0 0.0 38.6817305917 0.0 0.0
12 -20.7285 -13.808770076 -15.6228455795 0.01 1.0 0.0 38.6817305917 0.0 0.0
12 -20.7285 -11.967600076 -13.0190355795 0.01 1.0 0.0 38.6817305917 0.0 0.0
12 -19.134 -38.6645701774 -36.4533063521 0.01 1.0 0.0 38.6817305917 0.0 0.0
12 -19.134 -36.8234001774 -33.8494963521 0.01 1.0 0.0 38.6817305917 0.0 0.0
12 -17.5395 -35.9028101774 -36.4533063521 0.01 1.0 0.0 38.6817305917 0.0 0.0
12 -17.5395 -34.0616401774 -33.8494963521 0.01 1.0 0.0 38.6817305917 0.0 0.0
12 -19.134 -38.6645701774 -31.245691159 0.01 1.0 0.0 38.6817305917 0.0 0.0
12 -19.134 -36.8234001774 -28.641881159 0.01 1.0 0.0 38.6817305917 0.0 0.0
12 -17.5395 -35.9028101774 -31.245691159 0.01 1.0 0.0 38.6817305917 0.0 0.0
12 -17.5395 -34.0616401774 -28.641881159 0.01 1.0 0.0 38.6817305917 0.0 0.0
12 -19.134 -38.6645701774 -26.0380759658 0.01 1.0 0.0 38.6817305917 0.0 0.0
12 -19.134 -36.8234001774 -23.4342659658 0.01 1.0 0.0 38.6817305917 0.0 0.0
12 -17.5395 -35.9028101774 -26.0380759658 0.01 1.0 0.0 38.6817305917 0.0 0.0
12 -17.5395 -34.0616401774 -23.4342659658 0.01 1.0 0.0 38.6817305917 0.0 0.0
12 -19.134 -38.6645701774 -20.8304607726 0.01 1.0 0.0 38.6817305917 0.0 0.0
12 -19.134 -36.8234001774 -18.2266507726 0.01 1.0 0.0 38.6817305917 0.0 0.0
12 -17.5395 -35.9028101774 -20.8304607726 0.01 1.0 0.0 38.6817305917 0.0 0.0
12 -17.5395 -34.0616401774 -18.2266507726 0.01 1.0 0.0 38.6817305917 0.0 0.0
12 -19.134 -38.6645701774 -15.6228455795 0.01 1.0 0.0 38.6817305917 0.0 0.0
12 -19.134 -36.8234001774 -13.0190355795 0.01 1.0 0.0 38.6817305917 0.0 0.0
12 -17.5395 -35.9028101774 -15.6228455795 0.01 1.0 0.0 38.6817305917 0.0 0.0
12 -17.5395 -34.0616401774 -13.0190355795 0.01 1.0 0.0 38.6817305917 0.0 0.0
12 -19.134 -33.141060152 -36.4533063521 0.01 1.0 0.0 38.6817305917 0.0 0.0
12 -19.134 -31.299890152 -33.8494963521 0.01 1.0 0.0 38.6817305917 0.0 0.0
12 -17.5395 -30.379300152 -36.4533063521 0.01 1.0 0.0 38.6817305917 0.0 0.0
12 -17.5395 -28.538130152 -33.8494963521 0.01 1.0 0.0 38.6817305917 0.0 0.0
12 -19.134 -33.141060152 -31.245691159 0.01 1.0 0.0 38.6817305917 0.0 0.0
12 -19.134 -31.299890152 -28.641881159 0.01 1.0 0.0 38.6817305917 0.0 0.0
12 -17.5395 -30.379300152 -31.245691159 0.01 1.0 0.0 38.6817305917 0.0 0.0
12 -17.5395 -28.538130152 -28.641881159 0.01 1.0 0.0 38.6817305917 0.0 0.0
12 -19.134 -33.141060152 -26.0380759658 0.01 1.0 0.0 38.6817305917 0.0 0.0
12 -19.134 -31.299890152 -23.4342659658 0.01 1.0 0.0 38.6817305917 0.0 0.0
12 -17.5395 -30.379300152 -26.0380759658 0.01 1.0 0.0 38.6817305917 0.0 0.0
12 -17.5395 -28.538130152 -23.4342659658 0.01 1.0 0.0 38.6817305917 0.0 0.0
12 -19.134 -33.141060152 -20.8304607726 0.01 1.0 0.0 38.6817305917 0.0 0.0
12 -19.134 -31.299890152 -18.2266507726 0.01 1.0 0.0 38.6817305917 0.0 0.0
12 -17.5395 -30.379300152 -20.8304607726 0.01 1.0 0.0 38.6817305917 0.0 0.0
12 -17.5395 -28.538130152 -18.2266507726 0.01 1.0 0.0 38.6817305917 0.0 0.0
12 -19.134 -33.141060152 -15.6228455795 0.01 1.0 0.0 38.6817305917 0.0 0.0
12 -19.134 -31.299890152 -13.0190355795 0.01 1.0 0.0 38.6817305917 0.0 0.0
12 -17.5395 -30.379300152 -15.6228455795 0.01 1.0 0.0 38.6817305917 0.0 0.0
12 -17.5395 -28.538130152 -13.0190355795 0.01 1.0 0.0 38.6817305917 0.0 0.0
12 -19.134 -27.6175501267 -36.4533063521 0.01 1.0 0.0 38.6817305917 0.0 0.0
12 -19.134 -25.7763801267 -33.8494963521 0.01 1.0 0.0 38.6817305917 0.0 0.0
12 -17.5395 -24.8557901267 -36.4533063521 0.01 1.0 0.0 38.6817305917 0.0 0.0
12 -17.5395 -23.0146201267 -33.8494963521 0.01 1.0 0.0 38.6817305917 0.0 0.0
12 -19.134 -27.6175501267 -31.245691159 0.01 1.0 0.0 38.6817305917 0.0 0.0
12 -19.134 -25.7763801267 -28.641881159 0.01 1.0 0.0 38.6817305917 0.0 0.0
12 -17.5395 -24.8557901267 -31.245691159 0.01 1.0 0.0 38.6817305917 0.0 0.0
12 -17.5395 -23.0146201267 -28.641881159 0.01 1.0 0.0 38.6817305917 0.0 0.0
12 -19.134 -27.6175501267 -26.0380759658 0.01 1.0 0.0 38.6817305917 0.0 0.0
12 -19.134 -25.7763801267 -23.4342659658 0.01 1.0 0.0 38.6817305917 0.0 0.0
12 -17.5395 -24.8557901267 -26.0380759658 0.01 1.0 0.0 38.6817305917 0.0 0.0
12 -17.5395 -23.0146201267 -23.4342659658 0.01 1.0 0.0 38.6817305917 0.0 0.0
12 -19.134 -27.6175501267 -20.8304607726 0.01 1.0 0.0 38.6817305917 0.0 0.0
12 -19.134 -25.7763801267 -18.2266507726 0.01 1.0 0.0 38.6817305917 0.0 0.0
12 -17.5395 -24.8557901267 -20.8304607726 0.01 1.0 0.0 38.6817305917 0.0 0.0
12 -17.5395 -23.0146201267 -18.2266507726 0.01 1.0 0.0 38.6817305917 0.0 0.0
12 -19.134 -27.6175501267 -15.6228455795 0.01 1.0 0.0 38.6817305917 0.0 0.0
12 -19.134 -25.7763801267 -13.0190355795 0.01 1.0 0.0 38.6817305917 0.0 0.0
12 -17.5395 -24.8557901267 -15.6228455795 0.01 1.0 0.0 38.6817305917 0.0 0.0
12 -17.5395 -23.0146201267 -13.0190355795 0.01 1.0 0.0 38.6817305917 0.0 0.0
12 -19.134 -22.0940401014 -36.4533063521 0.01 1.0 0.0 38.6817305917 0.0 0.0
12 -19.134 -20.2528701014 -33.8494963521 0.01 1.0 0.0 38.6817305917 0.0 0.0
12 -17.5395 -19.3322801014 -36.4533063521 0.01 1.0 0.0 38.6817305917 0.0 0.0
12 -17.5395 -17.4911101014 -33.8494963521 0.01 1.0 0.0 38.6817305917 0.0 0.0
12 -19.134 -22.0940401014 -31.245691159 0.01 1.0 0.0 38.6817305917 0.0 0.0
12 -19.134 -20.2528701014 -28.641881159 0.01 1.0 0.0 38.6817305917 0.0 0.0
12 -17.5395 -19.3322801014 -31.245691159 0.01 1.0 0.0 38.6817305917 0.0 0.0
12 -17.5395 -17.4911101014 -28.641881159 0.01 1.0 0.0 38.6817305917 0.0 0.0
12 -19.134 -22.0940401014 -26.0380759658 0.01 1.0 0.0 38.6817305917 0.0 0.0
12 -19.134 -20.2528701014 -23.4342659658 0.01 1.0 0.0 38.6817305917 0.0 0.0
12 -17.5395 -19.3322801014 -26.0380759658 0.01 1.0 0.0 38.6817305917 0.0 0.0
12 -17.5395 -17.4911101014 -23.4342659658 0.01 1.0 0.0 38.6817305917 0.0 0.0
12 -19.134 -22.0940401014 -20.8304607726 0.01 1.0 0.0 38.6817305917 0.0 0.0
12 -19.134 -20.2528701014 -18.2266507726 0.01 1.0 0.0 38.6817305917 0.0 0.0
12 -17.5395 -19.3322801014 -20.8304607726 0.01 1.0 0.0 38.6817305917 0.0 0.0
12 -17.5395 -17.4911101014 -18.2266507726 0.01 1.0 0.0 38.6817305917 0.0 0.0
12 -19.134 -22.0940401014 -15.6228455795 0.01 1.0 0.0 38.6817305917 0.0 0.0
12 -19.134 -20.2528701014 -13.0190355795 0.01 1.0 0.0 38.6817305917 0.0 0.0
12 -17.5395 -19.3322801014 -15.6228455795 0.01 1.0 0.0 38.6817305917 0.0 0.0
12 -17.5395 -17.4911101014 -13.0190355795 0.01 1.0 0.0 38.6817305917 0.0 0.0
12 -19.134 -16.570530076 -36.4533063521 0.01 1.0 0.0 38.6817305917 0.0 0.0
12 -19.134 -14.729360076 -33.8494963521 0.01 1.0 0.0 38.6817305917 0.0 0.0
12 -17.5395 -13.808770076 -36.4533063521 0.01 1.0 0.0 38.6817305917 0.0 0.0
12 -17.5395 -11.967600076 -33.8494963521 0.01 1.0 0.0 38.6817305917 0.0 0.0
12 -19.134 -16.570530076 -31.245691159 0.01 1.0 0.0 38.6817305917 0.0 0.0
12 -19.134 -14.729360076 -28.641881159 0.01 1.0 0.0 38.6817305917 0.0 0.0
12 -17.5395 -13.808770076 -31.245691159 0.01 1.0 0.0 38.6817305917 0.0 0.0
12 -17.5395 -11.967600076 -28.641881159 0.01 1.0 0.0 38.6817305917 0.0 0.0
12 -19.134 -16.570530076 -26.0380759658 0.01 1.0 0.0 38.6817305917 0.0 0.0
12 -19.134 -14.729360076 -23.4342659658 0.01 1.0 0.0 38.6817305917 0.0 0.0
12 -17.5395 -13.808770076 -26.0380759658 0.01 1.0 0.0 38.6817305917 0.0 0.0
12 -17.5395 -11.967600076 -23.4342659658 0.01 1.0 0.0 38.6817305917 0.0 0.0
12 -19.134 -16.570530076 -20.8304607726 0.01 1.0 0.0 38.6817305917 0.0 0.0
12 -19.134 -14.729360076 -18.2266507726 0.01 1.0 0.0 38.6817305917 0.0 0.0
12 -17.5395 -13.808770076 -20.8304607726 0.01 1.0 0.0 38.6817305917 0.0 0.0
12 -17.5395 -11.967600076 -18.2266507726 0.01 1.0 0.0 38.6817305917 0.0 0.0
12 -19.134 -16.570530076 -15.6228455795 0.01 1.0 0.0 38.6817305917 0.0 0.0
12 -19.134 -14.729360076 -13.0190355795 0.01 1.0 0.0 38.6817305917 0.0 0.0
12 -17.5395 -13.808770076 -15.6228455795 0.01 1.0 0.0 38.6817305917 0.0 0.0
12 -17.5395 -11.967600076 -13.0190355795 0.01 1.0 0.0 38.6817305917 0.0 0.0
12 -15.945 -38.6645701774 -36.4533063521 0.01 1.0 0.0 38.6817305917 0.0 0.0
12 -15.945 -36.8234001774 -33.8494963521 0.01 1.0 0.0 38.6817305917 0.0 0.0
12 -14.3505 -35.9028101774 -36.4533063521 0.01 1.0 0.0 38.6817305917 0.0 0.0
12 -14.3505 -34.0616401774 -33.8494963521 0.01 1.0 0.0 38.6817305917 0.0 0.0
12 -15.945 -38.6645701774 -31.245691159 0.01 1.0 0.0 38.6817305917 0.0 0.0
12 -15.945 -36.8234001774 -28.641881159 0.01 1.0 0.0 38.6817305917 0.0 0.0
12 -14.3505 -35.9028101774 -31.245691159 0.01 1.0 0.0 38.6817305917 0.0 0.0
12 -14.3505 -34.0616401774 -28.641881159 0.01 1.0 0.0 38.6817305917 0.0 0.0
12 -15.945 -38.6645701774 -26.0380759658 0.01 1.0 0.0 38.6817305917 0.0 0.0
12 -15.945 -36.8234001774 -23.4342659658 0.01 1.0 0.0 38.6817305917 0.0 0.0
12 -14.3505 -35.9028101774 -26.0380759658 0.01 1.0 0.0 38.6817305917 0.0 0.0
12 -14.3505 -34.0616401774 -23.4342659658 0.01 1.0 0.0 38.6817305917 0.0 0.0
12 -15.945 -38.6645701774 -20.8304607726 0.01 1.0 0.0 38.6817305917 0.0 0.0
12 -15.945 -36.8234001774 -18.2266507726 0.01 1.0 0.0 38.6817305917 0.0 0.0
12 -14.3505 -35.9028101774 -20.8304607726 0.01 1.0 0.0 38.6817305917 0.0 0.0
12 -14.3505 -34.0616401774 -18.2266507726 0.01 1.0 0.0 38.6817305917 0.0 0.0
12 -15.945 -38.6645701774 -15.6228455795 0.01 1.0 0.0 38.6817305917 0.0 0.0
12 -15.945 -36.8234001774 -13.0190355795 0.01 1.0 0.0 38.6817305917 0.0 0.0
12 -14.3505 -35.9028101774 -15.6228455795 0.01 1.0 0.0 38.6817305917 0.0 0.0
12 -14.3505 -34.0616401774 -13.0190355795 0.01 1.0 0.0 38.6817305917 0.0 0.0
12 -15.945 -33.141060152 -36.4533063521 0.01 1.0 0.0 38.6817305917 0.0 0.0
12 -15.945 -31.299890152 -33.8494963521 0.01 1.0 0.0 38.6817305917 0.0 0.0
12 -14.3505 -30.379300152 -36.4533063521 0.01 1.0 0.0 38.6817305917 0.0 0.0
12 -14.3505 -28.538130152 -33.8494963521 0.01 1.0 0.0 38.6817305917 0.0 0.0
12 -15.945 -33.141060152 -31.245691159 0.01 1.0 0.0 38.6817305917 0.0 0.0
12 -15.945 -31.299890152 -28.641881159 0.01 1.0 0.0 38.6817305917 0.0 0.0
12 -14.3505 -30.379300152 -31.245691159 0.01 1.0 0.0 38.6817305917 0.0 0.0
12 -14.3505 -28.538130152 -28.641881159 0.01 1.0 0.0 38.6817305917 0.0 0.0
12 -15.945 -33.141060152 -26.0380759658 0.01 1.0 0.0 38.6817305917 0.0 0.0
12 -15.945 -31.299890152 -23.4342659658 0.01 1.0 0.0 38.6817305917 0.0 0.0
12 -14.3505 -30.379300152 -26.0380759658 0.01 1.0 0.0 38.6817305917 0.0 0.0
12 -14.3505 -28.538130152 -23.4342659658 0.01 1.0 0.0 38.6817305917 0.0 0.0
12 -15.945 -33.141060152 -20.8304607726 0.01 1.0 0.0 38.6817305917 0.0 0.0
12 -15.945 -31.299890152 -18.2266507726 0.01 1.0 0.0 38.6817305917 0.0 0.0
12 -14.3505 -30.379300152 -20.8304607726 0.01 1.0 0.0 38.6817305917 0.0 0.0
12 -14.3505 -28.538130152 -18.2266507726 0.01 1.0 0.0 38.6817305917 0.0 0.0
12 -15.945 -33.141060152 -15.6228455795 0.01 1.0 0.0 38.6817305917 0.0 0.0
12 -15.945 -31.299890152 -13.0190355795 0.01 1.0 0.0 38.6817305917 0.0 0.0
12 -14.3505 -30.379300152 -15.6228455795 0.01 1.0 0.0 38.6817305917 0.0 0.0
12 -14.3505 -28.538130152 -13.0190355795 0.01 1.0 0.0 38.6817305917 0.0 0.0
12 -15.945 -27.6175501267 -36.4533063521 0.01 1.0 0.0 38.6817305917 0.0 0.0
12 -15.945 -25.7763801267 -33.8494963521 0.01 1.0 0.0 38.6817305917 0.0 0.0
12 -14.3505 -24.8557901267 -36.4533063521 0.01 1.0 0.0 38.6817305917 0.0 0.0
12 -14.3505 -23.0146201267 -33.8494963521 0.01 1.0 0.0 38.6817305917 0.0 0.0
12 -15.945 -27.6175501267 -31.245691159 0.01 1.0 0.0 38.6817305917 0.0 0.0
12 -15.945 -25.7763801267 -28.641881159 0.01 1.0 0.0 38.6817305917 0.0 0.0
12 -14.3505 -24.8557901267 -31.245691159 0.01 1.0 0.0 38.6817305917 0.0 0.0
12 -14.3505 -23.0146201267 -28.641881159 0.01 1.0 0.0 38.6817305917 0.0 0.0
12 -15.945 -27.6175501267 -26.0380759658 0.01 1.0 0.0 38.6817305917 0.0 0.0
12 -15.945 -25.7763801267 -23.4342659658 0.01 1.0 0.0 38.6817305917 0.0 0.0
12 -14.3505 -24.8557901267 -26.0380759658 0.01 1.0 0.0 38.6817305917 0.0 0.0
12 -14.3505 -23.0146201267 -23.4342659658 0.01 1.0 0.0 38.6817305917 0.0 0.0
12 -15.945 -27.6175501267 -20.8304607726 0.01 1.0 0.0 38.6817305917 0.0 0.0
12 -15.945 -25.7763801267 -18.2266507726 0.01 1.0 0.0 38.6817305917 0.0 0.0
12 -14.3505 -24.8557901267 -20.8304607726 0.01 1.0 0.0 38.6817305917 0.0 0.0
12 -14.3505 -23.0146201267 -18.2266507726 0.01 1.0 0.0 38.6817305917 0.0 0.0
12 -15.945 -27.6175501267 -15.6228455795 0.01 1.0 0.0 38.6817305917 0.0 0.0
12 -15.945 -25.7763801267 -13.0190355795 0.01 1.0 0.0 38.6817305917 0.0 0.0
12 -14.3505 -24.8557901267 -15.6228455795 0.01 1.0 0.0 38.6817305917 0.0 0.0
12 -14.3505 -23.0146201267 -13.0190355795 0.01 1.0 0.0 38.6817305917 0.0 0.0
12 -15.945 -22.0940401014 -36.4533063521 0.01 1.0 0.0 38.6817305917 0.0 0.0
12 -15.945 -20.2528701014 -33.8494963521 0.01 1.0 0.0 38.6817305917 0.0 0.0
12 -14.3505 -19.3322801014 -36.4533063521 0.01 1.0 0.0 38.6817305917 0.0 0.0
12 -14.3505 -17.4911101014 -33.8494963521 0.01 1.0 0.0 38.6817305917 0.0 0.0
12 -15.945 -22.0940401014 -31.245691159 0.01 1.0 0.0 38.6817305917 0.0 0.0
12 -15.945 -20.2528701014 -28.641881159 0.01 1.0 0.0 38.6817305917 0.0 0.0
12 -14.3505 -19.3322801014 -31.245691159 0.01 1.0 0.0 38.6817305917 0.0 0.0
12 -14.3505 -17.4911101014 -28.641881159 0.01 1.0 0.0 38.6817305917 0.0 0.0
12 -15.945 -22.0940401014 -26.0380759658 0.01 1.0 0.0 38.6817305917 0.0 0.0
12 -15.945 -20.2528701014 -23.4342659658 0.01 1.0 0.0 38.6817305917 0.0 0.0
12 -14.3505 -19.3322801014 -26.0380759658 0.01 1.0 0.0 38.6817305917 0.0 0.0
12 -14.3505 -17.4911101014 -23.4342659658 0.01 1.0 0.0 38.6817305917 0.0 0.0
12 -15.945 -22.0940401014 -20.8304607726 0.01 1.0 0.0 38.6817305917 0.0 0.0
12 -15.945 -20.2528701014 -18.2266507726 0.01 1.0 0.0 38.6817305917 0.0 0.0
12 -14.3505 -19.3322801014 -20.8304607726 0.01 1.0 0.0 38.6817305917 0.0 0.0
12 -14.3505 -17.4911101014 -18.2266507726 0.01 1.0 0.0 38.6817305917 0.0 0.0
12 -15.945 -22.0940401014 -15.6228455795 0.01 1.0 0.0 38.6817305917 0.0 0.0
12 -15.945 -20.2528701014 -13.0190355795 0.01 1.0 0.0 38.6817305917 0.0 0.0
12 -14.3505 -19.3322801014 -15.6228455795 0.01 1.0 0.0 38.6817305917 0.0 0.0
12 -14.3505 -17.4911101014 -13.0190355795 0.01 1.0 0.0 38.6817305917 0.0 0.0
12 -15.945 -16.570530076 -36.4533063521 0.01 1.0 0.0 38.6817305917 0.0 0.0
12 -15.945 -14.729360076 -33.8494963521 0.01 1.0 0.0 38.6817305917 0.0 0.0
12 -14.3505 -13.808770076 -36.4533063521 0.01 1.0 0.0 38.6817305917 0.0 0.0
12 -14.3505 -11.967600076 -33.8494963521 0.01 1.0 0.0 38.6817305917 0.0 0.0
12 -15.945 -16.570530076 -31.245691159 0.01 1.0 0.0 38.6817305917 0.0 0.0
12 -15.945 -14.729360076 -28.641881159 0.01 1.0 0.0 38.6817305917 0.0 0.0
12 -14.3505 -13.808770076 -31.245691159 0.01 1.0 0.0 38.6817305917 0.0 0.0
12 -14.3505 -11.967600076 -28.641881159 0.01 1.0 0.0 38.6817305917 0.0 0.0
12 -15.945 -16.570530076 -26.0380759658 0.01 1.0 0.0 38.6817305917 0.0 0.0
12 -15.945 -14.729360076 -23.4342659658 0.01 1.0 0.0 38.6817305917 0.0 0.0
12 -14.3505 -13.808770076 -26.0380759658 0.01 1.0 0.0 38.6817305917 0.0 0.0
12 -14.3505 -11.967600076 -23.4342659658 0.01 1.0 0.0 38.6817305917 0.0 0.0
12 -15.945 -16.570530076 -20.8304607726 0.01 1.0 0.0 38.6817305917 0.0 0.0
12 -15.945 -14.729360076 -18.2266507726 0.01 1.0 0.0 38.6817305917 0.0 0.0
12 -14.3505 -13.808770076 -20.8304607726 0.01 1.0 0.0 38.6817305917 0.0 0.0
12 -14.3505 -11.967600076 -18.2266507726 0.01 1.0 0.0 38.6817305917 0.0 0.0
12 -15.945 -16.570530076 -15.6228455795 0.01 1.0 0.0 38.6817305917 0.0 0.0
12 -15.945 -14.729360076 -13.0190355795 0.01 1.0 0.0 38.6817305917 0.0 0.0
12 -14.3505 -13.808770076 -15.6228455795 0.01 1.0 0.0 38.6817305917 0.0 0.0
12 -14.3505 -11.967600076 -13.0190355795 0.01 1.0 0.0 38.6817305917 0.0 0.0
12 -12.756 -38.6645701774 -36.4533063521 0.01 1.0 0.0 38.6817305917 0.0 0.0
12 -12.756 -36.8234001774 -33.8494963521 0.01 1.0 0.0 38.6817305917 0.0 0.0
12 -11.1615 -35.9028101774 -36.4533063521 0.01 1.0 0.0 38.6817305917 0.0 0.0
12 -11.1615 -34.0616401774 -33.8494963521 0.01 1.0 0.0 38.6817305917 0.0 0.0
12 -12.756 -38.6645701774 -31.245691159 0.01 1.0 0.0 38.6817305917 0.0 0.0
12 -12.756 -36.8234001774 -28.641881159 0.01 1.0 0.0 38.6817305917 0.0 0.0
12 -11.1615 -35.9028101774 -31.245691159 0.01 1.0 0.0 38.6817305917 0.0 0.0
12 -11.1615 -34.0616401774 -28.641881159 0.01 1.0 0.0 38.6817305917 0.0 0.0
12 -12.756 -38.6645701774 -26.0380759658 0.01 1.0 0.0 38.6817305917 0.0 0.0
12 -12.756 -36.8234001774 -23.4342659658 0.01 1.0 0.0 38.6817305917 0.0 0.0
12 -11.1615 -35.9028101774 -26.0380759658 0.01 1.0 0.0 38.6817305917 0.0 0.0
12 -11.1615 -34.0616401774 -23.4342659658 0.01 1.0 0.0 38.6817305917 0.0 0.0
12 -12.756 -38.6645701774 -20.8304607726 0.01 1.0 0.0 38.6817305917 0.0 0.0
12 -12.756 -36.8234001774 -18.2266507726 0.01 1.0 0.0 38.6817305917 0.0 0.0
12 -11.1615 -35.9028101774 -20.8304607726 0.01 1.0 0.0 38.6817305917 0.0 0.0
12 -11.1615 -34.0616401774 -18.2266507726 0.01 1.0 0.0 38.6817305917 0.0 0.0
12 -12.756 -38.6645701774 -15.6228455795 0.01 1.0 0.0 38.6817305917 0.0 0.0
12 -12.756 -36.8234001774 -13.0190355795 0.01 1.0 0.0 38.6817305917 0.0 0.0
12 -11.1615 -35.9028101774 -15.6228455795 0.01 1.0 0.0 38.6817305917 0.0 0.0
12 -11.1615 -34.0616401774 -13.0190355795 0.01 1.0 0.0 38.6817305917 0.0 0.0
12 -12.756 -33.141060152 -36.4533063521 0.01 1.0 0.0 38.6817305917 0.0 0.0
12 -12.756 -31.299890152 -33.8494963521 0.01 1.0 0.0 38.6817305917 0.0 0.0
12 -11.1615 -30.379300152 -36.4533063521 0.01 1.0 0.0 38.6817305917 0.0 0.0
12 -11.1615 -28.538130152 -33.8494963521 0.01 1.0 0.0 38.6817305917 0.0 0.0
12 -12.756 -33.141060152 -31.245691159 0.01 1.0 0.0 38.6817305917 0.0 0.0
12 -12.756 -31.299890152 -28.641881159 0.01 1.0 0.0 38.6817305917 0.0 0.0
12 -11.1615 -30.379300152 -31.245691159 0.01 1.0 0.0 38.6817305917 0.0 0.0
12 -11.1615 -28.538130152 -28.641881159 0.01 1.0 0.0 38.6817305917 0.0 0.0
12 -12.756 -33.141060152 -26.0380759658 0.01 1.0 0.0 38.6817305917 0.0 0.0
12 -12.756 -31.299890152 -23.4342659658 0.01 1.0 0.0 38.6817305917 0.0 0.0
12 -11.1615 -30.379300152 -26.0380759658 0.01 1.0 0.0 38.6817305917 0.0 0.0
12 -11.1615 -28.538130152 -23.4342659658 0.01 1.0 0.0 38.6817305917 0.0 0.0
12 -12.756 -33.141060152 -20.8304607726 0.01 1.0 0.0 38.6817305917 0.0 0.0
12 -12.756 -31.299890152 -18.2266507726 0.01 1.0 0.0 38.6817305917 0.0 0.0
12 -11.1615 -30.379300152 -20.8304607726 0.01 1.0 0.0 38.6817305917 0.0 0.0
12 -11.1615 -28.538130152 -18.2266507726 0.01 1.0 0.0 38.6817305917 0.0 0.0
12 -12.756 -33.141060152 -15.6228455795 0.01 1.0 0.0 38.6817305917 0.0 0.0
12 -12.756 -31.299890152 -13.0190355795 0.01 1.0 0.0 38.6817305917 0.0 0.0
12 -11.1615 -30.379300152 -15.6228455795 0.01 1.0 0.0 38.6817305917 0.0 0.0
12 -11.1615 -28.538130152 -13.0190355795 0.01 1.0 0.0 38.6817305917 0.0 0.0
12 -12.756 -27.6175501267 -36.4533063521 0.01 1.0 0.0 38.6817305917 0.0 0.0
12 -12.756 -25.7763801267 -33.8494963521 0.01 1.0 0.0 38.6817305917 0.0 0.0
12 -11.1615 -24.8557901267 -36.4533063521 0.01 1.0 0.0 38.6817305917 0.0 0.0
12 -11.1615 -23.0146201267 -33.8494963521 0.01 1.0 0.0 38.6817305917 0.0 0.0
12 -12.756 -27.6175501267 -31.245691159 0.01 1.0 0.0 38.6817305917 0.0 0.0
12 -12.756 -25.7763801267 -28.641881159 0.01 1.0 0.0 38.6817305917 0.0 0.0
12 -11.1615 -24.8557901267 -31.245691159 0.01 1.0 0.0 38.6817305917 0.0 0.0
12 -11.1615 -23.0146201267 -28.641881159 0.01 1.0 0.0 38.6817305917 0.0 0.0
12 -12.756 -27.6175501267 -26.0380759658 0.01 1.0 0.0 38.6817305917 0.0 0.0
12 -12.756 -25.7763801267 -23.4342659658 0.01 1.0 0.0 38.6817305917 0.0 0.0
12 -11.1615 -24.8557901267 -26.0380759658 0.01 1.0 0.0 38.6817305917 0.0 0.0
12 -11.1615 -23.0146201267 -23.4342659658 0.01 1.0 0.0 38.6817305917 0.0 0.0
12 -12.756 -27.6175501267 -20.8304607726 0.01 1.0 0.0 38.6817305917 0.0 0.0
12 -12.756 -25.7763801267 -18.2266507726 0.01 1.0 0.0 38.6817305917 0.0 0.0
12 -11.1615 -24.8557901267 -20.8304607726 0.01 1.0 0.0 38.6817305917 0.0 0.0
12 -11.1615 -23.0146201267 -18.2266507726 0.01 1.0 0.0 38.6817305917 0.0 0.0
12 -12.756 -27.6175501267 -15.6228455795 0.01 1.0 0.0 38.6817305917 0.0 0.0
12 -12.756 -25.7763801267 -13.0190355795 0.01 1.0 0.0 38.6817305917 0.0 0.0
12 -11.1615 -24.8557901267 -15.6228455795 0.01 1.0 0.0 38.6817305917 0.0 0.0
12 -11.1615 -23.0146201267 -13.0190355795 0.01 1.0 0.0 38.6817305917 0.0 0.0
12 -12.756 -22.0940401014 -36.4533063521 0.01 1.0 0.0 38.6817305917 0.0 0.0
12 -12.756 -20.2528701014 -33.8494963521 0.01 1.0 0.0 38.6817305917 0.0 0.0
12 -11.1615 -19.3322801014 -36.4533063521 0.01 1.0 0.0 38.6817305917 0.0 0.0
12 -11.1615 -17.4911101014 -33.8494963521 0.01 1.0 0.0 38.6817305917 0.0 0.0
12 -12.756 -22.0940401014 -31.245691159 0.01 1.0 0.0 38.6817305917 0.0 0.0
12 -12.756 -20.2528701014 -28.641881159 0.01 1.0 0.0 38.6817305917 0.0 0.0
12 -11.1615 -19.3322801014 -31.245691159 0.01 1.0 0.0 38.6817305917 0.0 0.0
12 -11.1615 -17.4911101014 -28.641881159 0.01 1.0 0.0 38.6817305917 0.0 0.0
12 -12.756 -22.0940401014 -26.0380759658 0.01 1.0 0.0 38.6817305917 0.0 0.0
12 -12.756 -20.2528701014 -23.4342659658 0.01 1.0 0.0 38.6817305917 0.0 0.0
12 -11.1615 -19.3322801014 -26.0380759658 0.01 1.0 0.0 38.6817305917 0.0 0.0
12 -11.1615 -17.4911101014 -23.4342659658 0.01 1.0 0.0 38.6817305917 0.0 0.0
12 -12.756 -22.0940401014 -20.8304607726 0.01 1.0 0.0 38.6817305917 0.0 0.0
12 -12.756 -20.2528701014 -18.2266507726 0.01 1.0 0.0 38.6817305917 0.0 0.0
12 -11.1615 -19.3322801014 -20.8304607726 0.01 1.0 0.0 38.6817305917 0.0 0.0
12 -11.1615 -17.4911101014 -18.2266507726 0.01 1.0 0.0 38.6817305917 0.0 0.0
12 -12.756 -22.0940401014 -15.6228455795 0.01 1.0 0.0 38.6817305917 0.0 0.0
12 -12.756 -20.2528701014 -13.0190355795 0.01 1.0 0.0 38.6817305917 0.0 0.0
12 -11.1615 -19.3322801014 -15.6228455795 0.01 1.0 0.0 38.6817305917 0.0 0.0
12 -11.1615 -17.4911101014 -13.0190355795 0.01 1.0 0.0 38.6817305917 0.0 0.0
12 -12.756 -16.570530076 -36.4533063521 0.01 1.0 0.0 38.6817305917 0.0 0.0
12 -12.756 -14.729360076 -33.8494963521 0.01 1.0 0.0 38.6817305917 0.0 0.0
12 -11.1615 -13.808770076 -36.4533063521 0.01 1.0 0.0 38.6817305917 0.0 0.0
12 -11.1615 -11.967600076 -33.8494963521 0.01 1.0 0.0 38.6817305917 0.0 0.0
12 -12.756 -16.570530076 -31.245691159 0.01 1.0 0.0 38.6817305917 0.0 0.0
12 -12.756 -14.729360076 -28.641881159 0.01 1.0 0.0 38.6817305917 0.0 0.0
12 -11.1615 -13.808770076 -31.245691159 0.01 1.0 0.0 38.6817305917 0.0 0.0
12 -11.1615 -11.967600076 -28.641881159 0.01 1.0 0.0 38.6817305917 0.0 0.0
12 -12.756 -16.570530076 -26.0380759658 0.01 1.0 0.0 38.6817305917 0.0 0.0
12 -12.756 -14.729360076 -23.4342659658 0.01 1.0 0.0 38.6817305917 0.0 0.0
12 -11.1615 -13.808770076 -26.0380759658 0.01 1.0 0.0 38.6817305917 0.0 0.0