ITEM: TIMESTEP
0
ITEM: NUMBER OF ATOMS
108
ITEM: BOX BOUNDS pp pp pp
-3.189 6.378
-5.5235100253 11.0470200507
-5.2076151932 10.4152303863
ITEM: ATOMS type x y z stdvq molarfraction chemicalmultp thermalmultp chemicalmultpbcc thermalmultpbcc
12 -3.189 -5.5235100253 -5.2076151932 0.01 1.0 0.0 38.6817305917 0.0 0.0
12 -3.189 -3.6823400253 -2.6038051932 0.01 1.0 0.0 38.6817305917 0.0 0.0
12 -1.5945 -2.7617500253 -5.2076151932 0.01 1.0 0.0 38.6817305917 0.0 0.0
12 -1.5945 -0.9205800253 -2.6038051932 0.01 1.0 0.0 38.6817305917 0.0 0.0
12 -3.189 -5.5235100253 0.0 0.01 1.0 0.0 38.6817305917 0.0 0.0
12 -3.189 -3.6823400253 2.60381 0.01 1.0 0.0 38.6817305917 0.0 0.0
12 -1.5945 -2.7617500253 0.0 0.01 1.0 0.0 38.6817305917 0.0 0.0
12 -1.5945 -0.9205800253 2.60381 0.01 1.0 0.0 38.6817305917 0.0 0.0
12 -3.189 -5.5235100253 5.2076151932 0.01 1.0 0.0 38.6817305917 0.0 0.0
12 -3.189 -3.6823400253 7.8114251932 0.01 1.0 0.0 38.6817305917 0.0 0.0
12 -1.5945 -2.7617500253 5.2076151932 0.01 1.0 0.0 38.6817305917 0.0 0.0
12 -1.5945 -0.9205800253 7.8114251932 0.01 1.0 0.0 38.6817305917 0.0 0.0
12 -3.189 0.0 -5.2076151932 0.01 1.0 0.0 38.6817305917 0.0 0.0
12 -3.189 1.84117 -2.6038051932 0.01 1.0 0.0 38.6817305917 0.0 0.0
12 -1.5945 2.76176 -5.2076151932 0.01 1.0 0.0 38.6817305917 0.0 0.0
12 -1.5945 4.60293 -2.6038051932 0.01 1.0 0.0 38.6817305917 0.0 0.0
12 -3.189 0.0 0.0 0.01 1.0 0.0 38.6817305917 0.0 0.0
12 -3.189 1.84117 2.60381 0.01 1.0 0.0 38.6817305917 0.0 0.0
12 -1.5945 2.76176 0.0 0.01 1.0 0.0 38.6817305917 0.0 0.0
12 -1.5945 4.60293 2.60381 0.01 1.0 0.0 38.6817305917 0.0 0.0
12 -3.189 0.0 5.2076151932 0.01 1.0 0.0 38.6817305917 0.0 0.0
12 -3.189 1.84117 7.8114251932 0.01 1.0 0.0 38.6817305917 0.0 0.0
12 -1.5945 2.76176 5.2076151932 0.01 1.0 0.0 38.6817305917 0.0 0.0
12 -1.5945 4.60293 7.8114251932 0.01 1.0 0.0 38.6817305917 0.0 0.0
12 -3.189 5.5235100253 -5.2076151932 0.01 1.0 0.0 38.6817305917 0.0 0.0
12 -3.189 7.3646800253 -2.6038051932 0.01 1.0 0.0 38.6817305917 0.0 0.0
12 -1.5945 8.2852700253 -5.2076151932 0.01 1.0 0.0 38.6817305917 0.0 0.0
12 -1.5945 10.1264400253 -2.6038051932 0.01 1.0 0.0 38.6817305917 0.0 0.0
12 -3.189 5.5235100253 0.0 0.01 1.0 0.0 38.6817305917 0.0 0.0
12 -3.189 7.3646800253 2.60381 0.01 1.0 0.0 38.6817305917 0.0 0.0
12 -1.5945 8.2852700253 0.0 0.01 1.0 0.0 38.6817305917 0.0 0.0
12 -1.5945 10.1264400253 2.60381 0.01 1.0 0.0 38.6817305917 0.0 0.0
12 -3.189 5.5235100253 5.2076151932 0.01 1.0 0.0 38.6817305917 0.0 0.0
12 -3.189 7.3646800253 7.8114251932 0.01 1.0 0.0 38.6817305917 0.0 0.0
12 -1.5945 8.2852700253 5.2076151932 0.01 1.0 0.0 38.6817305917 0.0 0.0
12 -1.5945 10.1264400253 7.8114251932 0.01 1.0 0.0 38.6817305917 0.0 0.0
12 0.0 -5.5235100253 -5.2076151932 0.01 1.0 0.0 38.6817305917 0.0 0.0
12 0.0 -3.6823400253 -2.6038051932 0.01 1.0 0.0 38.6817305917 0.0 0.0
12 1.5945 -2.7617500253 -5.2076151932 0.01 1.0 0.0 38.6817305917 0.0 0.0
12 1.5945 -0.9205800253 -2.6038051932 0.01 1.0 0.0 38.6817305917 0.0 0.0
12 0.0 -5.5235100253 0.0 0.01 1.0 0.0 38.6817305917 0.0 0.0
12 0.0 -3.6823400253 2.60381 0.01 1.0 0.0 38.6817305917 0.0 0.0
12 1.5945 -2.7617500253 0.0 0.01 1.0 0.0 38.6817305917 0.0 0.0
12 1.5945 -0.9205800253 2.60381 0.01 1.0 0.0 38.6817305917 0.0 0.0
12 0.0 -5.5235100253 5.2076151932 0.01 1.0 0.0 38.6817305917 0.0 0.0
12 0.0 -3.6823400253 7.8114251932 0.01 1.0 0.0 38.6817305917 0.0 0.0
12 1.5945 -2.7617500253 5.2076151932 0.01 1.0 0.0 38.6817305917 0.0 0.0
12 1.5945 -0.9205800253 7.8114251932 0.01 1.0 0.0 38.6817305917 0.0 0.0
12 0.0 0.0 -5.2076151932 0.01 1.0 0.0 38.6817305917 0.0 0.0
12 0.0 1.84117 -2.6038051932 0.01 1.0 0.0 38.6817305917 0.0 0.0
12 1.5945 2.76176 -5.2076151932 0.01 1.0 0.0 38.6817305917 0.0 0.0
12 1.5945 4.60293 -2.6038051932 0.01 1.0 0.0 38.6817305917 0.0 0.0
12 0.0 0.0 0.0 0.01 1.0 0.0 38.6817305917 0.0 0.0
12 0.0 1.84117 2.60381 0.01 1.0 0.0 38.6817305917 0.0 0.0
12 1.5945 2.76176 0.0 0.01 1.0 0.0 38.6817305917 0.0 0.0
12 1.5945 4.60293 2.60381 0.01 1.0 0.0 38.6817305917 0.0 0.0
12 0.0 0.0 5.2076151932 0.01 1.0 0.0 38.6817305917 0.0 0.0
12 0.0 1.84117 7.8114251932 0.01 1.0 0.0 38.6817305917 0.0 0.0
12 1.5945 2.76176 5.2076151932 0.01 1.0 0.0 38.6817305917 0.0 0.0
12 1.5945 4.60293 7.8114251932 0.01 1.0 0.0 38.6817305917 0.0 0.0
12 0.0 5.5235100253 -5.2076151932 0.01 1.0 0.0 38.6817305917 0.0 0.0
12 0.0 7.3646800253 -2.6038051932 0.01 1.0 0.0 38.6817305917 0.0 0.0
12 1.5945 8.2852700253 -5.2076151932 0.01 1.0 0.0 38.6817305917 0.0 0.0
12 1.5945 10.1264400253 -2.6038051932 0.01 1.0 0.0 38.6817305917 0.0 0.0
12 0.0 5.5235100253 0.0 0.01 1.0 0.0 38.6817305917 0.0 0.0
12 0.0 7.3646800253 2.60381 0.01 1.0 0.0 38.6817305917 0.0 0.0
12 1.5945 8.2852700253 0.0 0.01 1.0 0.0 38.6817305917 0.0 0.0
12 1.5945 10.1264400253 2.60381 0.01 1.0 0.0 38.6817305917 0.0 0.0
12 0.0 5.5235100253 5.2076151932 0.01 1.0 0.0 38.6817305917 0.0 0.0
12 0.0 7.3646800253 7.8114251932 0.01 1.0 0.0 38.6817305917 0.0 0.0
12 1.5945 8.2852700253 5.2076151932 0.01 1.0 0.0 38.6817305917 0.0 0.0
12 1.5945 10.1264400253 7.8114251932 0.01 1.0 0.0 38.6817305917 0.0 0.0
12 3.189 -5.5235100253 -5.2076151932 0.01 1.0 0.0 38.6817305917 0.0 0.0
12 3.189 -3.6823400253 -2.6038051932 0.01 1.0 0.0 38.6817305917 0.0 0.0
12 4.7835 -2.7617500253 -5.2076151932 0.01 1.0 0.0 38.6817305917 0.0 0.0
12 4.7835 -0.9205800253 -2.6038051932 0.01 1.0 0.0 38.6817305917 0.0 0.0
12 3.189 -5.5235100253 0.0 0.01 1.0 0.0 38.6817305917 0.0 0.0
12 3.189 -3.6823400253 2.60381 0.01 1.0 0.0 38.6817305917 0.0 0.0
12 4.7835 -2.7617500253 0.0 0.01 1.0 0.0 38.6817305917 0.0 0.0
12 4.7835 -0.9205800253 2.60381 0.01 1.0 0.0 38.6817305917 0.0 0.0
12 3.189 -5.5235100253 5.2076151932 0.01 1.0 0.0 38.6817305917 0.0 0.0
12 3.189 -3.6823400253 7.8114251932 0.01 1.0 0.0 38.6817305917 0.0 0.0
12 4.7835 -2.7617500253 5.2076151932 0.01 1.0 0.0 38.6817305917 0.0 0.0
12 4.7835 -0.9205800253 7.8114251932 0.01 1.0 0.0 38.6817305917 0.0 0.0
12 3.189 0.0 -5.2076151932 0.01 1.0 0.0 38.6817305917 0.0 0.0
12 3.189 1.84117 -2.6038051932 0.01 1.0 0.0 38.6817305917 0.0 0.0
12 4.7835 2.76176 -5.2076151932 0.01 1.0 0.0 38.6817305917 0.0 0.0
12 4.7835 4.60293 -2.6038051932 0.01 1.0 0.0 38.6817305917 0.0 0.0
12 3.189 0.0 0.0 0.01 1.0 0.0 38.6817305917 0.0 0.0
12 3.189 1.84117 2.60381 0.01 1.0 0.0 38.6817305917 0.0 0.0
12 4.7835 2.76176 0.0 0.01 1.0 0.0 38.6817305917 0.0 0.0
12 4.7835 4.60293 2.60381 0.01 1.0 0.0 38.6817305917 0.0 0.0
12 3.189 0.0 5.2076151932 0.01 1.0 0.0 38.6817305917 0.0 0.0
12 3.189 1.84117 7.8114251932 0.01 1.0 0.0 38.6817305917 0.0 0.0
12 4.7835 2.76176 5.2076151932 0.01 1.0 0.0 38.6817305917 0.0 0.0
12 4.7835 4.60293 7.8114251932 0.01 1.0 0.0 38.6817305917 0.0 0.0
12 3.189 5.5235100253 -5.2076151932 0.01 1.0 0.0 38.6817305917 0.0 0.0
12 3.189 7.3646800253 -2.6038051932 0.01 1.0 0.0 38.6817305917 0.0 0.0
12 4.7835 8.2852700253 -5.2076151932 0.01 1.0 0.0 38.6817305917 0.0 0.0
12 4.7835 10.1264400253 -2.6038051932 0.01 1.0 0.0 38.6817305917 0.0 0.0
12 3.189 5.5235100253 0.0 0.01 1.0 0.0 38.6817305917 0.0 0.0
12 3.189 7.3646800253 2.60381 0.01 1.0 0.0 38.6817305917 0.0 0.0
12 4.7835 8.2852700253 0.0 0.01 1.0 0.0 38.6817305917 0.0 0.0
12 4.7835 10.1264400253 2.60381 0.01 1.0 0.0 38.6817305917 0.0 0.0
12 3.189 5.5235100253 5.2076151932 0.01 1.0 0.0 38.6817305917 0.0 0.0
12 3.189 7.3646800253 7.8114251932 0.01 1.0 0.0 38.6817305917 0.0 0.0
12 4.7835 8.2852700253 5.2076151932 0.01 1.0 0.0 38.6817305917 0.0 0.0
12 4.7835 10.1264400253 7.8114251932 0.01 1.0 0.0 38.6817305917 0.0 0.0
