ITEM: TIMESTEP
0
ITEM: NUMBER OF ATOMS
15200
ITEM: BOX BOUNDS ff ff pp
-30.0 34.5076075621
-20.0 53.0
-46.8685367384 57.2837671247
ITEM: ATOMS type x y z stdvq molarfraction chemicalmultp thermalmultp chemicalmultpbcc thermalmultpbcc
12 -27.6778924379 -0.8486868448 -44.2647267384 0.01 1.0 0.0 38.6817305917 0.0 0.0
12 -27.6778924379 -0.8486868448 -39.0571115453 0.01 1.0 0.0 38.6817305917 0.0 0.0
12 -27.6778924379 -0.8486868448 -33.8494963521 0.01 1.0 0.0 38.6817305917 0.0 0.0
12 -27.6778924379 -0.8486868448 -28.6418811589 0.01 1.0 0.0 38.6817305917 0.0 0.0
12 -27.6778924379 -0.8486868448 -23.4342659658 0.01 1.0 0.0 38.6817305917 0.0 0.0
12 -27.6778924379 -0.8486868448 -18.2266507726 0.01 1.0 0.0 38.6817305917 0.0 0.0
12 -27.6778924379 -0.8486868448 -13.0190355795 0.01 1.0 0.0 38.6817305917 0.0 0.0
12 -27.6778924379 -0.8486868448 -7.8114203863 0.01 1.0 0.0 38.6817305917 0.0 0.0
12 -27.6778924379 -0.8486868448 -2.6038051932 0.01 1.0 0.0 38.6817305917 0.0 0.0
12 -27.6778924379 -0.8486868448 2.60381 0.01 1.0 0.0 38.6817305917 0.0 0.0
12 -27.6778924379 -0.8486868448 7.8114251932 0.01 1.0 0.0 38.6817305917 0.0 0.0
12 -27.6778924379 -0.8486868448 13.0190403863 0.01 1.0 0.0 38.6817305917 0.0 0.0
12 -27.6778924379 -0.8486868448 18.2266555795 0.01 1.0 0.0 38.6817305917 0.0 0.0
12 -27.6778924379 -0.8486868448 23.4342707726 0.01 1.0 0.0 38.6817305917 0.0 0.0
12 -27.6778924379 -0.8486868448 28.6418859658 0.01 1.0 0.0 38.6817305917 0.0 0.0
12 -27.6778924379 -0.8486868448 33.8495011589 0.01 1.0 0.0 38.6817305917 0.0 0.0
12 -27.6778924379 -0.8486868448 39.0571163521 0.01 1.0 0.0 38.6817305917 0.0 0.0
12 -27.6778924379 -0.8486868448 44.2647315453 0.01 1.0 0.0 38.6817305917 0.0 0.0
12 -27.6778924379 -0.8486868448 49.4723467384 0.01 1.0 0.0 38.6817305917 0.0 0.0
12 -27.6778924379 -0.8486868448 54.6799619316 0.01 1.0 0.0 38.6817305917 0.0 0.0
12 -27.6778924379 2.8336531805 -46.8685367384 0.01 1.0 0.0 38.6817305917 0.0 0.0
12 -27.6778924379 4.6748231805 -44.2647267384 0.01 1.0 0.0 38.6817305917 0.0 0.0
12 -27.6778924379 2.8336531805 -41.6609215453 0.01 1.0 0.0 38.6817305917 0.0 0.0
12 -27.6778924379 4.6748231805 -39.0571115453 0.01 1.0 0.0 38.6817305917 0.0 0.0
12 -27.6778924379 2.8336531805 -36.4533063521 0.01 1.0 0.0 38.6817305917 0.0 0.0
12 -27.6778924379 4.6748231805 -33.8494963521 0.01 1.0 0.0 38.6817305917 0.0 0.0
12 -27.6778924379 2.8336531805 -31.2456911589 0.01 1.0 0.0 38.6817305917 0.0 0.0
12 -27.6778924379 4.6748231805 -28.6418811589 0.01 1.0 0.0 38.6817305917 0.0 0.0
12 -27.6778924379 2.8336531805 -26.0380759658 0.01 1.0 0.0 38.6817305917 0.0 0.0
12 -27.6778924379 4.6748231805 -23.4342659658 0.01 1.0 0.0 38.6817305917 0.0 0.0
12 -27.6778924379 2.8336531805 -20.8304607726 0.01 1.0 0.0 38.6817305917 0.0 0.0
12 -27.6778924379 4.6748231805 -18.2266507726 0.01 1.0 0.0 38.6817305917 0.0 0.0
12 -27.6778924379 2.8336531805 -15.6228455795 0.01 1.0 0.0 38.6817305917 0.0 0.0
12 -27.6778924379 4.6748231805 -13.0190355795 0.01 1.0 0.0 38.6817305917 0.0 0.0
12 -27.6778924379 2.8336531805 -10.4152303863 0.01 1.0 0.0 38.6817305917 0.0 0.0
12 -27.6778924379 4.6748231805 -7.8114203863 0.01 1.0 0.0 38.6817305917 0.0 0.0
12 -27.6778924379 2.8336531805 -5.2076151932 0.01 1.0 0.0 38.6817305917 0.0 0.0
12 -27.6778924379 4.6748231805 -2.6038051932 0.01 1.0 0.0 38.6817305917 0.0 0.0
12 -27.6778924379 2.8336531805 -7.1054273576e-15 0.01 1.0 0.0 38.6817305917 0.0 0.0
12 -27.6778924379 4.6748231805 2.60381 0.01 1.0 0.0 38.6817305917 0.0 0.0
12 -27.6778924379 2.8336531805 5.2076151932 0.01 1.0 0.0 38.6817305917 0.0 0.0
12 -27.6778924379 4.6748231805 7.8114251932 0.01 1.0 0.0 38.6817305917 0.0 0.0
12 -27.6778924379 2.8336531805 10.4152303863 0.01 1.0 0.0 38.6817305917 0.0 0.0
12 -27.6778924379 4.6748231805 13.0190403863 0.01 1.0 0.0 38.6817305917 0.0 0.0
12 -27.6778924379 2.8336531805 15.6228455795 0.01 1.0 0.0 38.6817305917 0.0 0.0
12 -27.6778924379 4.6748231805 18.2266555795 0.01 1.0 0.0 38.6817305917 0.0 0.0
12 -27.6778924379 2.8336531805 20.8304607726 0.01 1.0 0.0 38.6817305917 0.0 0.0
12 -27.6778924379 4.6748231805 23.4342707726 0.01 1.0 0.0 38.6817305917 0.0 0.0
12 -27.6778924379 2.8336531805 26.0380759658 0.01 1.0 0.0 38.6817305917 0.0 0.0
12 -27.6778924379 4.6748231805 28.6418859658 0.01 1.0 0.0 38.6817305917 0.0 0.0
12 -27.6778924379 2.8336531805 31.2456911589 0.01 1.0 0.0 38.6817305917 0.0 0.0
12 -27.6778924379 4.6748231805 33.8495011589 0.01 1.0 0.0 38.6817305917 0.0 0.0
12 -27.6778924379 2.8336531805 36.4533063521 0.01 1.0 0.0 38.6817305917 0.0 0.0
12 -27.6778924379 4.6748231805 39.0571163521 0.01 1.0 0.0 38.6817305917 0.0 0.0
12 -27.6778924379 2.8336531805 41.6609215453 0.01 1.0 0.0 38.6817305917 0.0 0.0
12 -27.6778924379 4.6748231805 44.2647315453 0.01 1.0 0.0 38.6817305917 0.0 0.0
12 -27.6778924379 2.8336531805 46.8685367384 0.01 1.0 0.0 38.6817305917 0.0 0.0
12 -27.6778924379 4.6748231805 49.4723467384 0.01 1.0 0.0 38.6817305917 0.0 0.0
12 -27.6778924379 2.8336531805 52.0761519316 0.01 1.0 0.0 38.6817305917 0.0 0.0
12 -27.6778924379 4.6748231805 54.6799619316 0.01 1.0 0.0 38.6817305917 0.0 0.0
12 -27.6778924379 8.3571632059 -46.8685367384 0.01 1.0 0.0 38.6817305917 0.0 0.0
12 -27.6778924379 10.1983332059 -44.2647267384 0.01 1.0 0.0 38.6817305917 0.0 0.0
12 -27.6778924379 8.3571632059 -41.6609215453 0.01 1.0 0.0 38.6817305917 0.0 0.0
12 -27.6778924379 10.1983332059 -39.0571115453 0.01 1.0 0.0 38.6817305917 0.0 0.0
12 -27.6778924379 8.3571632059 -36.4533063521 0.01 1.0 0.0 38.6817305917 0.0 0.0
12 -27.6778924379 10.1983332059 -33.8494963521 0.01 1.0 0.0 38.6817305917 0.0 0.0
12 -27.6778924379 8.3571632059 -31.2456911589 0.01 1.0 0.0 38.6817305917 0.0 0.0
12 -27.6778924379 10.1983332059 -28.6418811589 0.01 1.0 0.0 38.6817305917 0.0 0.0
12 -27.6778924379 8.3571632059 -26.0380759658 0.01 1.0 0.0 38.6817305917 0.0 0.0
12 -27.6778924379 10.1983332059 -23.4342659658 0.01 1.0 0.0 38.6817305917 0.0 0.0
12 -27.6778924379 8.3571632059 -20.8304607726 0.01 1.0 0.0 38.6817305917 0.0 0.0
12 -27.6778924379 10.1983332059 -18.2266507726 0.01 1.0 0.0 38.6817305917 0.0 0.0
12 -27.6778924379 8.3571632059 -15.6228455795 0.01 1.0 0.0 38.6817305917 0.0 0.0
12 -27.6778924379 10.1983332059 -13.0190355795 0.01 1.0 0.0 38.6817305917 0.0 0.0
12 -27.6778924379 8.3571632059 -10.4152303863 0.01 1.0 0.0 38.6817305917 0.0 0.0
12 -27.6778924379 10.1983332059 -7.8114203863 0.01 1.0 0.0 38.6817305917 0.0 0.0
12 -27.6778924379 8.3571632059 -5.2076151932 0.01 1.0 0.0 38.6817305917 0.0 0.0
12 -27.6778924379 10.1983332059 -2.6038051932 0.01 1.0 0.0 38.6817305917 0.0 0.0
12 -27.6778924379 8.3571632059 -7.1054273576e-15 0.01 1.0 0.0 38.6817305917 0.0 0.0
12 -27.6778924379 10.1983332059 2.60381 0.01 1.0 0.0 38.6817305917 0.0 0.0
12 -27.6778924379 8.3571632059 5.2076151932 0.01 1.0 0.0 38.6817305917 0.0 0.0
12 -27.6778924379 10.1983332059 7.8114251932 0.01 1.0 0.0 38.6817305917 0.0 0.0
12 -27.6778924379 8.3571632059 10.4152303863 0.01 1.0 0.0 38.6817305917 0.0 0.0
12 -27.6778924379 10.1983332059 13.0190403863 0.01 1.0 0.0 38.6817305917 0.0 0.0
12 -27.6778924379 8.3571632059 15.6228455795 0.01 1.0 0.0 38.6817305917 0.0 0.0
12 -27.6778924379 10.1983332059 18.2266555795 0.01 1.0 0.0 38.6817305917 0.0 0.0
12 -27.6778924379 8.3571632059 20.8304607726 0.01 1.0 0.0 38.6817305917 0.0 0.0
12 -27.6778924379 10.1983332059 23.4342707726 0.01 1.0 0.0 38.6817305917 0.0 0.0
12 -27.6778924379 8.3571632059 26.0380759658 0.01 1.0 0.0 38.6817305917 0.0 0.0
12 -27.6778924379 10.1983332059 28.6418859658 0.01 1.0 0.0 38.6817305917 0.0 0.0
12 -27.6778924379 8.3571632059 31.2456911589 0.01 1.0 0.0 38.6817305917 0.0 0.0
12 -27.6778924379 10.1983332059 33.8495011589 0.01 1.0 0.0 38.6817305917 0.0 0.0
12 -27.6778924379 8.3571632059 36.4533063521 0.01 1.0 0.0 38.6817305917 0.0 0.0
12 -27.6778924379 10.1983332059 39.0571163521 0.01 1.0 0.0 38.6817305917 0.0 0.0
12 -27.6778924379 8.3571632059 41.6609215453 0.01 1.0 0.0 38.6817305917 0.0 0.0
12 -27.6778924379 10.1983332059 44.2647315453 0.01 1.0 0.0 38.6817305917 0.0 0.0
12 -27.6778924379 8.3571632059 46.8685367384 0.01 1.0 0.0 38.6817305917 0.0 0.0
12 -27.6778924379 10.1983332059 49.4723467384 0.01 1.0 0.0 38.6817305917 0.0 0.0
12 -27.6778924379 8.3571632059 52.0761519316 0.01 1.0 0.0 38.6817305917 0.0 0.0
12 -27.6778924379 10.1983332059 54.6799619316 0.01 1.0 0.0 38.6817305917 0.0 0.0
12 -27.6778924379 13.8806732312 -46.8685367384 0.01 1.0 0.0 38.6817305917 0.0 0.0
12 -27.6778924379 15.7218432312 -44.2647267384 0.01 1.0 0.0 38.6817305917 0.0 0.0
12 -27.6778924379 13.8806732312 -41.6609215453 0.01 1.0 0.0 38.6817305917 0.0 0.0
12 -27.6778924379 15.7218432312 -39.0571115453 0.01 1.0 0.0 38.6817305917 0.0 0.0
12 -27.6778924379 13.8806732312 -36.4533063521 0.01 1.0 0.0 38.6817305917 0.0 0.0
12 -27.6778924379 15.7218432312 -33.8494963521 0.01 1.0 0.0 38.6817305917 0.0 0.0
12 -27.6778924379 13.8806732312 -31.2456911589 0.01 1.0 0.0 38.6817305917 0.0 0.0
12 -27.6778924379 15.7218432312 -28.6418811589 0.01 1.0 0.0 38.6817305917 0.0 0.0
12 -27.6778924379 13.8806732312 -26.0380759658 0.01 1.0 0.0 38.6817305917 0.0 0.0
12 -27.6778924379 15.7218432312 -23.4342659658 0.01 1.0 0.0 38.6817305917 0.0 0.0
12 -27.6778924379 13.8806732312 -20.8304607726 0.01 1.0 0.0 38.6817305917 0.0 0.0
12 -27.6778924379 15.7218432312 -18.2266507726 0.01 1.0 0.0 38.6817305917 0.0 0.0
12 -27.6778924379 13.8806732312 -15.6228455795 0.01 1.0 0.0 38.6817305917 0.0 0.0
12 -27.6778924379 15.7218432312 -13.0190355795 0.01 1.0 0.0 38.6817305917 0.0 0.0
12 -27.6778924379 13.8806732312 -10.4152303863 0.01 1.0 0.0 38.6817305917 0.0 0.0
12 -27.6778924379 15.7218432312 -7.8114203863 0.01 1.0 0.0 38.6817305917 0.0 0.0
12 -27.6778924379 13.8806732312 -5.2076151932 0.01 1.0 0.0 38.6817305917 0.0 0.0
12 -27.6778924379 15.7218432312 -2.6038051932 0.01 1.0 0.0 38.6817305917 0.0 0.0
12 -27.6778924379 13.8806732312 -7.1054273576e-15 0.01 1.0 0.0 38.6817305917 0.0 0.0
12 -27.6778924379 15.7218432312 2.60381 0.01 1.0 0.0 38.6817305917 0.0 0.0
12 -27.6778924379 13.8806732312 5.2076151932 0.01 1.0 0.0 38.6817305917 0.0 0.0
12 -27.6778924379 15.7218432312 7.8114251932 0.01 1.0 0.0 38.6817305917 0.0 0.0
12 -27.6778924379 13.8806732312 10.4152303863 0.01 1.0 0.0 38.6817305917 0.0 0.0
12 -27.6778924379 15.7218432312 13.0190403863 0.01 1.0 0.0 38.6817305917 0.0 0.0
12 -27.6778924379 13.8806732312 15.6228455795 0.01 1.0 0.0 38.6817305917 0.0 0.0
12 -27.6778924379 15.7218432312 18.2266555795 0.01 1.0 0.0 38.6817305917 0.0 0.0
12 -27.6778924379 13.8806732312 20.8304607726 0.01 1.0 0.0 38.6817305917 0.0 0.0
12 -27.6778924379 15.7218432312 23.4342707726 0.01 1.0 0.0 38.6817305917 0.0 0.0
12 -27.6778924379 13.8806732312 26.0380759658 0.01 1.0 0.0 38.6817305917 0.0 0.0
12 -27.6778924379 15.7218432312 28.6418859658 0.01 1.0 0.0 38.6817305917 0.0 0.0
12 -27.6778924379 13.8806732312 31.2456911589 0.01 1.0 0.0 38.6817305917 0.0 0.0
12 -27.6778924379 15.7218432312 33.8495011589 0.01 1.0 0.0 38.6817305917 0.0 0.0
12 -27.6778924379 13.8806732312 36.4533063521 0.01 1.0 0.0 38.6817305917 0.0 0.0
12 -27.6778924379 15.7218432312 39.0571163521 0.01 1.0 0.0 38.6817305917 0.0 0.0
12 -27.6778924379 13.8806732312 41.6609215453 0.01 1.0 0.0 38.6817305917 0.0 0.0
12 -27.6778924379 15.7218432312 44.2647315453 0.01 1.0 0.0 38.6817305917 0.0 0.0
12 -27.6778924379 13.8806732312 46.8685367384 0.01 1.0 0.0 38.6817305917 0.0 0.0
12 -27.6778924379 15.7218432312 49.4723467384 0.01 1.0 0.0 38.6817305917 0.0 0.0
12 -27.6778924379 13.8806732312 52.0761519316 0.01 1.0 0.0 38.6817305917 0.0 0.0
12 -27.6778924379 15.7218432312 54.6799619316 0.01 1.0 0.0 38.6817305917 0.0 0.0
12 -27.6778924379 19.4041832565 -46.8685367384 0.01 1.0 0.0 38.6817305917 0.0 0.0
12 -27.6778924379 21.2453532565 -44.2647267384 0.01 1.0 0.0 38.6817305917 0.0 0.0
12 -27.6778924379 19.4041832565 -41.6609215453 0.01 1.0 0.0 38.6817305917 0.0 0.0
12 -27.6778924379 21.2453532565 -39.0571115453 0.01 1.0 0.0 38.6817305917 0.0 0.0
12 -27.6778924379 19.4041832565 -36.4533063521 0.01 1.0 0.0 38.6817305917 0.0 0.0
12 -27.6778924379 21.2453532565 -33.8494963521 0.01 1.0 0.0 38.6817305917 0.0 0.0
12 -27.6778924379 19.4041832565 -31.2456911589 0.01 1.0 0.0 38.6817305917 0.0 0.0
12 -27.6778924379 21.2453532565 -28.6418811589 0.01 1.0 0.0 38.6817305917 0.0 0.0
12 -27.6778924379 19.4041832565 -26.0380759658 0.01 1.0 0.0 38.6817305917 0.0 0.0
12 -27.6778924379 21.2453532565 -23.4342659658 0.01 1.0 0.0 38.6817305917 0.0 0.0
12 -27.6778924379 19.4041832565 -20.8304607726 0.01 1.0 0.0 38.6817305917 0.0 0.0
12 -27.6778924379 21.2453532565 -18.2266507726 0.01 1.0 0.0 38.6817305917 0.0 0.0
12 -27.6778924379 19.4041832565 -15.6228455795 0.01 1.0 0.0 38.6817305917 0.0 0.0
12 -27.6778924379 21.2453532565 -13.0190355795 0.01 1.0 0.0 38.6817305917 0.0 0.0
12 -27.6778924379 19.4041832565 -10.4152303863 0.01 1.0 0.0 38.6817305917 0.0 0.0
12 -27.6778924379 21.2453532565 -7.8114203863 0.01 1.0 0.0 38.6817305917 0.0 0.0
12 -27.6778924379 19.4041832565 -5.2076151932 0.01 1.0 0.0 38.6817305917 0.0 0.0
12 -27.6778924379 21.2453532565 -2.6038051932 0.01 1.0 0.0 38.6817305917 0.0 0.0
12 -27.6778924379 19.4041832565 -7.1054273576e-15 0.01 1.0 0.0 38.6817305917 0.0 0.0
12 -27.6778924379 21.2453532565 2.60381 0.01 1.0 0.0 38.6817305917 0.0 0.0
12 -27.6778924379 19.4041832565 5.2076151932 0.01 1.0 0.0 38.6817305917 0.0 0.0
12 -27.6778924379 21.2453532565 7.8114251932 0.01 1.0 0.0 38.6817305917 0.0 0.0
12 -27.6778924379 19.4041832565 10.4152303863 0.01 1.0 0.0 38.6817305917 0.0 0.0
12 -27.6778924379 21.2453532565 13.0190403863 0.01 1.0 0.0 38.6817305917 0.0 0.0
12 -27.6778924379 19.4041832565 15.6228455795 0.01 1.0 0.0 38.6817305917 0.0 0.0
12 -27.6778924379 21.2453532565 18.2266555795 0.01 1.0 0.0 38.6817305917 0.0 0.0
12 -27.6778924379 19.4041832565 20.8304607726 0.01 1.0 0.0 38.6817305917 0.0 0.0
12 -27.6778924379 21.2453532565 23.4342707726 0.01 1.0 0.0 38.6817305917 0.0 0.0
12 -27.6778924379 19.4041832565 26.0380759658 0.01 1.0 0.0 38.6817305917 0.0 0.0
12 -27.6778924379 21.2453532565 28.6418859658 0.01 1.0 0.0 38.6817305917 0.0 0.0
12 -27.6778924379 19.4041832565 31.2456911589 0.01 1.0 0.0 38.6817305917 0.0 0.0
12 -27.6778924379 21.2453532565 33.8495011589 0.01 1.0 0.0 38.6817305917 0.0 0.0
12 -27.6778924379 19.4041832565 36.4533063521 0.01 1.0 0.0 38.6817305917 0.0 0.0
12 -27.6778924379 21.2453532565 39.0571163521 0.01 1.0 0.0 38.6817305917 0.0 0.0
12 -27.6778924379 19.4041832565 41.6609215453 0.01 1.0 0.0 38.6817305917 0.0 0.0
12 -27.6778924379 21.2453532565 44.2647315453 0.01 1.0 0.0 38.6817305917 0.0 0.0
12 -27.6778924379 19.4041832565 46.8685367384 0.01 1.0 0.0 38.6817305917 0.0 0.0
12 -27.6778924379 21.2453532565 49.4723467384 0.01 1.0 0.0 38.6817305917 0.0 0.0
12 -27.6778924379 19.4041832565 52.0761519316 0.01 1.0 0.0 38.6817305917 0.0 0.0
12 -27.6778924379 21.2453532565 54.6799619316 0.01 1.0 0.0 38.6817305917 0.0 0.0
12 -27.6778924379 24.9276932819 -46.8685367384 0.01 1.0 0.0 38.6817305917 0.0 0.0
12 -27.6778924379 26.7688632819 -44.2647267384 0.01 1.0 0.0 38.6817305917 0.0 0.0
12 -27.6778924379 24.9276932819 -41.6609215453 0.01 1.0 0.0 38.6817305917 0.0 0.0
12 -27.6778924379 26.7688632819 -39.0571115453 0.01 1.0 0.0 38.6817305917 0.0 0.0
12 -27.6778924379 24.9276932819 -36.4533063521 0.01 1.0 0.0 38.6817305917 0.0 0.0
12 -27.6778924379 26.7688632819 -33.8494963521 0.01 1.0 0.0 38.6817305917 0.0 0.0
12 -27.6778924379 24.9276932819 -31.2456911589 0.01 1.0 0.0 38.6817305917 0.0 0.0
12 -27.6778924379 26.7688632819 -28.6418811589 0.01 1.0 0.0 38.6817305917 0.0 0.0
12 -27.6778924379 24.9276932819 -26.0380759658 0.01 1.0 0.0 38.6817305917 0.0 0.0
12 -27.6778924379 26.7688632819 -23.4342659658 0.01 1.0 0.0 38.6817305917 0.0 0.0
12 -27.6778924379 24.9276932819 -20.8304607726 0.01 1.0 0.0 38.6817305917 0.0 0.0
12 -27.6778924379 26.7688632819 -18.2266507726 0.01 1.0 0.0 38.6817305917 0.0 0.0
12 -27.6778924379 24.9276932819 -15.6228455795 0.01 1.0 0.0 38.6817305917 0.0 0.0
12 -27.6778924379 26.7688632819 -13.0190355795 0.01 1.0 0.0 38.6817305917 0.0 0.0
12 -27.6778924379 24.9276932819 -10.4152303863 0.01 1.0 0.0 38.6817305917 0.0 0.0
12 -27.6778924379 26.7688632819 -7.8114203863 0.01 1.0 0.0 38.6817305917 0.0 0.0
12 -27.6778924379 24.9276932819 -5.2076151932 0.01 1.0 0.0 38.6817305917 0.0 0.0
12 -27.6778924379 26.7688632819 -2.6038051932 0.01 1.0 0.0 38.6817305917 0.0 0.0
12 -27.6778924379 24.9276932819 -7.1054273576e-15 0.01 1.0 0.0 38.6817305917 0.0 0.0
12 -27.6778924379 26.7688632819 2.60381 0.01 1.0 0.0 38.6817305917 0.0 0.0
12 -27.6778924379 24.9276932819 5.2076151932 0.01 1.0 0.0 38.6817305917 0.0 0.0
12 -27.6778924379 26.7688632819 7.8114251932 0.01 1.0 0.0 38.6817305917 0.0 0.0
12 -27.6778924379 24.9276932819 10.4152303863 0.01 1.0 0.0 38.6817305917 0.0 0.0
12 -27.6778924379 26.7688632819 13.0190403863 0.01 1.0 0.0 38.6817305917 0.0 0.0
12 -27.6778924379 24.9276932819 15.6228455795 0.01 1.0 0.0 38.6817305917 0.0 0.0
12 -27.6778924379 26.7688632819 18.2266555795 0.01 1.0 0.0 38.6817305917 0.0 0.0
12 -27.6778924379 24.9276932819 20.8304607726 0.01 1.0 0.0 38.6817305917 0.0 0.0
12 -27.6778924379 26.7688632819 23.4342707726 0.01 1.0 0.0 38.6817305917 0.0 0.0
12 -27.6778924379 24.9276932819 26.0380759658 0.01 1.0 0.0 38.6817305917 0.0 0.0
12 -27.6778924379 26.7688632819 28.6418859658 0.01 1.0 0.0 38.6817305917 0.0 0.0
12 -27.6778924379 24.9276932819 31.2456911589 0.01 1.0 0.0 38.6817305917 0.0 0.0
12 -27.6778924379 26.7688632819 33.8495011589 0.01 1.0 0.0 38.6817305917 0.0 0.0
12 -27.6778924379 24.9276932819 36.4533063521 0.01 1.0 0.0 38.6817305917 0.0 0.0
12 -27.6778924379 26.7688632819 39.0571163521 0.01 1.0 0.0 38.6817305917 0.0 0.0
12 -27.6778924379 24.9276932819 41.6609215453 0.01 1.0 0.0 38.6817305917 0.0 0.0
12 -27.6778924379 26.7688632819 44.2647315453 0.01 1.0 0.0 38.6817305917 0.0 0.0
12 -27.6778924379 24.9276932819 46.8685367384 0.01 1.0 0.0 38.6817305917 0.0 0.0
12 -27.6778924379 26.7688632819 49.4723467384 0.01 1.0 0.0 38.6817305917 0.0 0.0
12 -27.6778924379 24.9276932819 52.0761519316 0.01 1.0 0.0 38.6817305917 0.0 0.0
12 -27.6778924379 26.7688632819 54.6799619316 0.01 1.0 0.0 38.6817305917 0.0 0.0
12 -27.6778924379 30.4512033072 -46.8685367384 0.01 1.0 0.0 38.6817305917 0.0 0.0
12 -27.6778924379 32.2923733072 -44.2647267384 0.01 1.0 0.0 38.6817305917 0.0 0.0
12 -27.6778924379 30.4512033072 -41.6609215453 0.01 1.0 0.0 38.6817305917 0.0 0.0
12 -27.6778924379 32.2923733072 -39.0571115453 0.01 1.0 0.0 38.6817305917 0.0 0.0
12 -27.6778924379 30.4512033072 -36.4533063521 0.01 1.0 0.0 38.6817305917 0.0 0.0
12 -27.6778924379 32.2923733072 -33.8494963521 0.01 1.0 0.0 38.6817305917 0.0 0.0
12 -27.6778924379 30.4512033072 -31.2456911589 0.01 1.0 0.0 38.6817305917 0.0 0.0
12 -27.6778924379 32.2923733072 -28.6418811589 0.01 1.0 0.0 38.6817305917 0.0 0.0
12 -27.6778924379 30.4512033072 -26.0380759658 0.01 1.0 0.0 38.6817305917 0.0 0.0
12 -27.6778924379 32.2923733072 -23.4342659658 0.01 1.0 0.0 38.6817305917 0.0 0.0
12 -27.6778924379 30.4512033072 -20.8304607726 0.01 1.0 0.0 38.6817305917 0.0 0.0
12 -27.6778924379 32.2923733072 -18.2266507726 0.01 1.0 0.0 38.6817305917 0.0 0.0
12 -27.6778924379 30.4512033072 -15.6228455795 0.01 1.0 0.0 38.6817305917 0.0 0.0
12 -27.6778924379 32.2923733072 -13.0190355795 0.01 1.0 0.0 38.6817305917 0.0 0.0
12 -27.6778924379 30.4512033072 -10.4152303863 0.01 1.0 0.0 38.6817305917 0.0 0.0
12 -27.6778924379 32.2923733072 -7.8114203863 0.01 1.0 0.0 38.6817305917 0.0 0.0
12 -27.6778924379 30.4512033072 -5.2076151932 0.01 1.0 0.0 38.6817305917 0.0 0.0
12 -27.6778924379 32.2923733072 -2.6038051932 0.01 1.0 0.0 38.6817305917 0.0 0.0
12 -27.6778924379 30.4512033072 -7.1054273576e-15 0.01 1.0 0.0 38.6817305917 0.0 0.0
12 -27.6778924379 32.2923733072 2.60381 0.01 1.0 0.0 38.6817305917 0.0 0.0
12 -27.6778924379 30.4512033072 5.2076151932 0.01 1.0 0.0 38.6817305917 0.0 0.0
12 -27.6778924379 32.2923733072 7.8114251932 0.01 1.0 0.0 38.6817305917 0.0 0.0
12 -27.6778924379 30.4512033072 10.4152303863 0.01 1.0 0.0 38.6817305917 0.0 0.0
12 -27.6778924379 32.2923733072 13.0190403863 0.01 1.0 0.0 38.6817305917 0.0 0.0
12 -27.6778924379 30.4512033072 15.6228455795 0.01 1.0 0.0 38.6817305917 0.0 0.0
12 -27.6778924379 32.2923733072 18.2266555795 0.01 1.0 0.0 38.6817305917 0.0 0.0
12 -27.6778924379 30.4512033072 20.8304607726 0.01 1.0 0.0 38.6817305917 0.0 0.0
12 -27.6778924379 32.2923733072 23.4342707726 0.01 1.0 0.0 38.6817305917 0.0 0.0
12 -27.6778924379 30.4512033072 26.0380759658 0.01 1.0 0.0 38.6817305917 0.0 0.0
12 -27.6778924379 32.2923733072 28.6418859658 0.01 1.0 0.0 38.6817305917 0.0 0.0
12 -27.6778924379 30.4512033072 31.2456911589 0.01 1.0 0.0 38.6817305917 0.0 0.0
12 -27.6778924379 32.2923733072 33.8495011589 0.01 1.0 0.0 38.6817305917 0.0 0.0
12 -27.6778924379 30.4512033072 36.4533063521 0.01 1.0 0.0 38.6817305917 0.0 0.0
12 -27.6778924379 32.2923733072 39.0571163521 0.01 1.0 0.0 38.6817305917 0.0 0.0
12 -27.6778924379 30.4512033072 41.6609215453 0.01 1.0 0.0 38.6817305917 0.0 0.0
12 -27.6778924379 32.2923733072 44.2647315453 0.01 1.0 0.0 38.6817305917 0.0 0.0
12 -27.6778924379 30.4512033072 46.8685367384 0.01 1.0 0.0 38.6817305917 0.0 0.0
12 -27.6778924379 32.2923733072 49.4723467384 0.01 1.0 0.0 38.6817305917 0.0 0.0
12 -27.6778924379 30.4512033072 52.0761519316 0.01 1.0 0.0 38.6817305917 0.0 0.0
12 -27.6778924379 32.2923733072 54.6799619316 0.01 1.0 0.0 38.6817305917 0.0 0.0
12 -24.4888924379 -2.6898568448 -46.8685367384 0.01 1.0 0.0 38.6817305917 0.0 0.0
12 -24.4888924379 -0.8486868448 -44.2647267384 0.01 1.0 0.0 38.6817305917 0.0 0.0
12 -24.4888924379 -2.6898568448 -41.6609215453 0.01 1.0 0.0 38.6817305917 0.0 0.0
12 -24.4888924379 -0.8486868448 -39.0571115453 0.01 1.0 0.0 38.6817305917 0.0 0.0
12 -24.4888924379 -2.6898568448 -36.4533063521 0.01 1.0 0.0 38.6817305917 0.0 0.0
12 -24.4888924379 -0.8486868448 -33.8494963521 0.01 1.0 0.0 38.6817305917 0.0 0.0
12 -24.4888924379 -2.6898568448 -31.2456911589 0.01 1.0 0.0 38.6817305917 0.0 0.0
12 -24.4888924379 -0.8486868448 -28.6418811589 0.01 1.0 0.0 38.6817305917 0.0 0.0
12 -24.4888924379 -2.6898568448 -26.0380759658 0.01 1.0 0.0 38.6817305917 0.0 0.0
12 -24.4888924379 -0.8486868448 -23.4342659658 0.01 1.0 0.0 38.6817305917 0.0 0.0
12 -24.4888924379 -2.6898568448 -20.8304607726 0.01 1.0 0.0 38.6817305917 0.0 0.0
12 -24.4888924379 -0.8486868448 -18.2266507726 0.01 1.0 0.0 38.6817305917 0.0 0.0
12 -24.4888924379 -2.6898568448 -15.6228455795 0.01 1.0 0.0 38.6817305917 0.0 0.0
12 -24.4888924379 -0.8486868448 -13.0190355795 0.01 1.0 0.0 38.6817305917 0.0 0.0
12 -24.4888924379 -2.6898568448 -10.4152303863 0.01 1.0 0.0 38.6817305917 0.0 0.0
12 -24.4888924379 -0.8486868448 -7.8114203863 0.01 1.0 0.0 38.6817305917 0.0 0.0
12 -24.4888924379 -2.6898568448 -5.2076151932 0.01 1.0 0.0 38.6817305917 0.0 0.0
12 -24.4888924379 -0.8486868448 -2.6038051932 0.01 1.0 0.0 38.6817305917 0.0 0.0
12 -24.4888924379 -2.6898568448 -7.1054273576e-15 0.01 1.0 0.0 38.6817305917 0.0 0.0
12 -24.4888924379 -0.8486868448 2.60381 0.01 1.0 0.0 38.6817305917 0.0 0.0
12 -24.4888924379 -2.6898568448 5.2076151932 0.01 1.0 0.0 38.6817305917 0.0 0.0
12 -24.4888924379 -0.8486868448 7.8114251932 0.01 1.0 0.0 38.6817305917 0.0 0.0
12 -24.4888924379 -2.6898568448 10.4152303863 0.01 1.0 0.0 38.6817305917 0.0 0.0
12 -24.4888924379 -0.8486868448 13.0190403863 0.01 1.0 0.0 38.6817305917 0.0 0.0
12 -24.4888924379 -2.6898568448 15.6228455795 0.01 1.0 0.0 38.6817305917 0.0 0.0
12 -24.4888924379 -0.8486868448 18.2266555795 0.01 1.0 0.0 38.6817305917 0.0 0.0
12 -24.4888924379 -2.6898568448 20.8304607726 0.01 1.0 0.0 38.6817305917 0.0 0.0
12 -24.4888924379 -0.8486868448 23.4342707726 0.01 1.0 0.0 38.6817305917 0.0 0.0
12 -24.4888924379 -2.6898568448 26.0380759658 0.01 1.0 0.0 38.6817305917 0.0 0.0
12 -24.4888924379 -0.8486868448 28.6418859658 0.01 1.0 0.0 38.6817305917 0.0 0.0
12 -24.4888924379 -2.6898568448 31.2456911589 0.01 1.0 0.0 38.6817305917 0.0 0.0
12 -24.4888924379 -0.8486868448 33.8495011589 0.01 1.0 0.0 38.6817305917 0.0 0.0
12 -24.4888924379 -2.6898568448 36.4533063521 0.01 1.0 0.0 38.6817305917 0.0 0.0
12 -24.4888924379 -0.8486868448 39.0571163521 0.01 1.0 0.0 38.6817305917 0.0 0.0
12 -24.4888924379 -2.6898568448 41.6609215453 0.01 1.0 0.0 38.6817305917 0.0 0.0
12 -24.4888924379 -0.8486868448 44.2647315453 0.01 1.0 0.0 38.6817305917 0.0 0.0
12 -24.4888924379 -2.6898568448 46.8685367384 0.01 1.0 0.0 38.6817305917 0.0 0.0
12 -24.4888924379 -0.8486868448 49.4723467384 0.01 1.0 0.0 38.6817305917 0.0 0.0
12 -24.4888924379 -2.6898568448 52.0761519316 0.01 1.0 0.0 38.6817305917 0.0 0.0
12 -24.4888924379 -0.8486868448 54.6799619316 0.01 1.0 0.0 38.6817305917 0.0 0.0
12 -26.0833924379 0.0718931805 -46.8685367384 0.01 1.0 0.0 38.6817305917 0.0 0.0
12 -26.0833924379 1.9130631805 -44.2647267384 0.01 1.0 0.0 38.6817305917 0.0 0.0
12 -24.4888924379 2.8336531805 -46.8685367384 0.01 1.0 0.0 38.6817305917 0.0 0.0
12 -24.4888924379 4.6748231805 -44.2647267384 0.01 1.0 0.0 38.6817305917 0.0 0.0
12 -26.0833924379 0.0718931805 -41.6609215453 0.01 1.0 0.0 38.6817305917 0.0 0.0
12 -26.0833924379 1.9130631805 -39.0571115453 0.01 1.0 0.0 38.6817305917 0.0 0.0
12 -24.4888924379 2.8336531805 -41.6609215453 0.01 1.0 0.0 38.6817305917 0.0 0.0
12 -24.4888924379 4.6748231805 -39.0571115453 0.01 1.0 0.0 38.6817305917 0.0 0.0
12 -26.0833924379 0.0718931805 -36.4533063521 0.01 1.0 0.0 38.6817305917 0.0 0.0
12 -26.0833924379 1.9130631805 -33.8494963521 0.01 1.0 0.0 38.6817305917 0.0 0.0
12 -24.4888924379 2.8336531805 -36.4533063521 0.01 1.0 0.0 38.6817305917 0.0 0.0
12 -24.4888924379 4.6748231805 -33.8494963521 0.01 1.0 0.0 38.6817305917 0.0 0.0
12 -26.0833924379 0.0718931805 -31.2456911589 0.01 1.0 0.0 38.6817305917 0.0 0.0
12 -26.0833924379 1.9130631805 -28.6418811589 0.01 1.0 0.0 38.6817305917 0.0 0.0
12 -24.4888924379 2.8336531805 -31.2456911589 0.01 1.0 0.0 38.6817305917 0.0 0.0
12 -24.4888924379 4.6748231805 -28.6418811589 0.01 1.0 0.0 38.6817305917 0.0 0.0
12 -26.0833924379 0.0718931805 -26.0380759658 0.01 1.0 0.0 38.6817305917 0.0 0.0
12 -26.0833924379 1.9130631805 -23.4342659658 0.01 1.0 0.0 38.6817305917 0.0 0.0
12 -24.4888924379 2.8336531805 -26.0380759658 0.01 1.0 0.0 38.6817305917 0.0 0.0
12 -24.4888924379 4.6748231805 -23.4342659658 0.01 1.0 0.0 38.6817305917 0.0 0.0
12 -26.0833924379 0.0718931805 -20.8304607726 0.01 1.0 0.0 38.6817305917 0.0 0.0
12 -26.0833924379 1.9130631805 -18.2266507726 0.01 1.0 0.0 38.6817305917 0.0 0.0
12 -24.4888924379 2.8336531805 -20.8304607726 0.01 1.0 0.0 38.6817305917 0.0 0.0
12 -24.4888924379 4.6748231805 -18.2266507726 0.01 1.0 0.0 38.6817305917 0.0 0.0
12 -26.0833924379 0.0718931805 -15.6228455795 0.01 1.0 0.0 38.6817305917 0.0 0.0
12 -26.0833924379 1.9130631805 -13.0190355795 0.01 1.0 0.0 38.6817305917 0.0 0.0
12 -24.4888924379 2.8336531805 -15.6228455795 0.01 1.0 0.0 38.6817305917 0.0 0.0
12 -24.4888924379 4.6748231805 -13.0190355795 0.01 1.0 0.0 38.6817305917 0.0 0.0
12 -26.0833924379 0.0718931805 -10.4152303863 0.01 1.0 0.0 38.6817305917 0.0 0.0
12 -26.0833924379 1.9130631805 -7.8114203863 0.01 1.0 0.0 38.6817305917 0.0 0.0
12 -24.4888924379 2.8336531805 -10.4152303863 0.01 1.0 0.0 38.6817305917 0.0 0.0
12 -24.4888924379 4.6748231805 -7.8114203863 0.01 1.0 0.0 38.6817305917 0.0 0.0
12 -26.0833924379 0.0718931805 -5.2076151932 0.01 1.0 0.0 38.6817305917 0.0 0.0
12 -26.0833924379 1.9130631805 -2.6038051932 0.01 1.0 0.0 38.6817305917 0.0 0.0
12 -24.4888924379 2.8336531805 -5.2076151932 0.01 1.0 0.0 38.6817305917 0.0 0.0
12 -24.4888924379 4.6748231805 -2.6038051932 0.01 1.0 0.0 38.6817305917 0.0 0.0
12 -26.0833924379 0.0718931805 -7.1054273576e-15 0.01 1.0 0.0 38.6817305917 0.0 0.0
12 -26.0833924379 1.9130631805 2.60381 0.01 1.0 0.0 38.6817305917 0.0 0.0
12 -24.4888924379 2.8336531805 -7.1054273576e-15 0.01 1.0 0.0 38.6817305917 0.0 0.0
12 -24.4888924379 4.6748231805 2.60381 0.01 1.0 0.0 38.6817305917 0.0 0.0
12 -26.0833924379 0.0718931805 5.2076151932 0.01 1.0 0.0 38.6817305917 0.0 0.0
12 -26.0833924379 1.9130631805 7.8114251932 0.01 1.0 0.0 38.6817305917 0.0 0.0
12 -24.4888924379 2.8336531805 5.2076151932 0.01 1.0 0.0 38.6817305917 0.0 0.0
12 -24.4888924379 4.6748231805 7.8114251932 0.01 1.0 0.0 38.6817305917 0.0 0.0
12 -26.0833924379 0.0718931805 10.4152303863 0.01 1.0 0.0 38.6817305917 0.0 0.0
12 -26.0833924379 1.9130631805 13.0190403863 0.01 1.0 0.0 38.6817305917 0.0 0.0
12 -24.4888924379 2.8336531805 10.4152303863 0.01 1.0 0.0 38.6817305917 0.0 0.0
12 -24.4888924379 4.6748231805 13.0190403863 0.01 1.0 0.0 38.6817305917 0.0 0.0
12 -26.0833924379 0.0718931805 15.6228455795 0.01 1.0 0.0 38.6817305917 0.0 0.0
12 -26.0833924379 1.9130631805 18.2266555795 0.01 1.0 0.0 38.6817305917 0.0 0.0
12 -24.4888924379 2.8336531805 15.6228455795 0.01 1.0 0.0 38.6817305917 0.0 0.0
12 -24.4888924379 4.6748231805 18.2266555795 0.01 1.0 0.0 38.6817305917 0.0 0.0
12 -26.0833924379 0.0718931805 20.8304607726 0.01 1.0 0.0 38.6817305917 0.0 0.0
12 -26.0833924379 1.9130631805 23.4342707726 0.01 1.0 0.0 38.6817305917 0.0 0.0
12 -24.4888924379 2.8336531805 20.8304607726 0.01 1.0 0.0 38.6817305917 0.0 0.0
12 -24.4888924379 4.6748231805 23.4342707726 0.01 1.0 0.0 38.6817305917 0.0 0.0
12 -26.0833924379 0.0718931805 26.0380759658 0.01 1.0 0.0 38.6817305917 0.0 0.0
12 -26.0833924379 1.9130631805 28.6418859658 0.01 1.0 0.0 38.6817305917 0.0 0.0
12 -24.4888924379 2.8336531805 26.0380759658 0.01 1.0 0.0 38.6817305917 0.0 0.0
12 -24.4888924379 4.6748231805 28.6418859658 0.01 1.0 0.0 38.6817305917 0.0 0.0
12 -26.0833924379 0.0718931805 31.2456911589 0.01 1.0 0.0 38.6817305917 0.0 0.0
12 -26.0833924379 1.9130631805 33.8495011589 0.01 1.0 0.0 38.6817305917 0.0 0.0
12 -24.4888924379 2.8336531805 31.2456911589 0.01 1.0 0.0 38.6817305917 0.0 0.0
12 -24.4888924379 4.6748231805 33.8495011589 0.01 1.0 0.0 38.6817305917 0.0 0.0
12 -26.0833924379 0.0718931805 36.4533063521 0.01 1.0 0.0 38.6817305917 0.0 0.0
12 -26.0833924379 1.9130631805 39.0571163521 0.01 1.0 0.0 38.6817305917 0.0 0.0
12 -24.4888924379 2.8336531805 36.4533063521 0.01 1.0 0.0 38.6817305917 0.0 0.0