ITEM: TIMESTEP
0
ITEM: NUMBER OF ATOMS
750
ITEM: BOX BOUNDS pp pp pp
-9.0336 13.5504
-9.0336 13.5504
-6.041 9.0615
ITEM: ATOMS type x y z stdvq molarfraction chemicalmultp thermalmultp chemicalmultpbcc thermalmultpbcc
12 -9.0336 -9.0336 -6.041 0.01 1.0 0.0 38.6817305917 0.0 0.0
12 -6.7752 -6.7752 -4.53075 0.01 1.0 0.0 38.6817305917 0.0 0.0
1 -7.6514592 -7.6514592 -6.041 0.01 1.0 0.0 38.6817305917 0.0 0.0
1 -8.1573408 -5.3930592 -4.53075 0.01 1.0 0.0 38.6817305917 0.0 0.0
1 -5.8989408 -5.8989408 -6.041 0.01 1.0 0.0 38.6817305917 0.0 0.0
1 -5.3930592 -8.1573408 -4.53075 0.01 1.0 0.0 38.6817305917 0.0 0.0
12 -9.0336 -9.0336 -3.0205 0.01 1.0 0.0 38.6817305917 0.0 0.0
12 -6.7752 -6.7752 -1.51025 0.01 1.0 0.0 38.6817305917 0.0 0.0
1 -7.6514592 -7.6514592 -3.0205 0.01 1.0 0.0 38.6817305917 0.0 0.0
1 -8.1573408 -5.3930592 -1.51025 0.01 1.0 0.0 38.6817305917 0.0 0.0
1 -5.8989408 -5.8989408 -3.0205 0.01 1.0 0.0 38.6817305917 0.0 0.0
1 -5.3930592 -8.1573408 -1.51025 0.01 1.0 0.0 38.6817305917 0.0 0.0
12 -9.0336 -9.0336 0.0 0.01 1.0 0.0 38.6817305917 0.0 0.0
12 -6.7752 -6.7752 1.51025 0.01 1.0 0.0 38.6817305917 0.0 0.0
1 -7.6514592 -7.6514592 0.0 0.01 1.0 0.0 38.6817305917 0.0 0.0
1 -8.1573408 -5.3930592 1.51025 0.01 1.0 0.0 38.6817305917 0.0 0.0
1 -5.8989408 -5.8989408 0.0 0.01 1.0 0.0 38.6817305917 0.0 0.0
1 -5.3930592 -8.1573408 1.51025 0.01 1.0 0.0 38.6817305917 0.0 0.0
12 -9.0336 -9.0336 3.0205 0.01 1.0 0.0 38.6817305917 0.0 0.0
12 -6.7752 -6.7752 4.53075 0.01 1.0 0.0 38.6817305917 0.0 0.0
1 -7.6514592 -7.6514592 3.0205 0.01 1.0 0.0 38.6817305917 0.0 0.0
1 -8.1573408 -5.3930592 4.53075 0.01 1.0 0.0 38.6817305917 0.0 0.0
1 -5.8989408 -5.8989408 3.0205 0.01 1.0 0.0 38.6817305917 0.0 0.0
1 -5.3930592 -8.1573408 4.53075 0.01 1.0 0.0 38.6817305917 0.0 0.0
12 -9.0336 -9.0336 6.041 0.01 1.0 0.0 38.6817305917 0.0 0.0
12 -6.7752 -6.7752 7.55125 0.01 1.0 0.0 38.6817305917 0.0 0.0
1 -7.6514592 -7.6514592 6.041 0.01 1.0 0.0 38.6817305917 0.0 0.0
1 -8.1573408 -5.3930592 7.55125 0.01 1.0 0.0 38.6817305917 0.0 0.0
1 -5.8989408 -5.8989408 6.041 0.01 1.0 0.0 38.6817305917 0.0 0.0
1 -5.3930592 -8.1573408 7.55125 0.01 1.0 0.0 38.6817305917 0.0 0.0
12 -9.0336 -4.5168 -6.041 0.01 1.0 0.0 38.6817305917 0.0 0.0
12 -6.7752 -2.2584 -4.53075 0.01 1.0 0.0 38.6817305917 0.0 0.0
1 -7.6514592 -3.1346592 -6.041 0.01 1.0 0.0 38.6817305917 0.0 0.0
1 -8.1573408 -0.8762592 -4.53075 0.01 1.0 0.0 38.6817305917 0.0 0.0
1 -5.8989408 -1.3821408 -6.041 0.01 1.0 0.0 38.6817305917 0.0 0.0
1 -5.3930592 -3.6405408 -4.53075 0.01 1.0 0.0 38.6817305917 0.0 0.0
12 -9.0336 -4.5168 -3.0205 0.01 1.0 0.0 38.6817305917 0.0 0.0
12 -6.7752 -2.2584 -1.51025 0.01 1.0 0.0 38.6817305917 0.0 0.0
1 -7.6514592 -3.1346592 -3.0205 0.01 1.0 0.0 38.6817305917 0.0 0.0
1 -8.1573408 -0.8762592 -1.51025 0.01 1.0 0.0 38.6817305917 0.0 0.0
1 -5.8989408 -1.3821408 -3.0205 0.01 1.0 0.0 38.6817305917 0.0 0.0
1 -5.3930592 -3.6405408 -1.51025 0.01 1.0 0.0 38.6817305917 0.0 0.0
12 -9.0336 -4.5168 0.0 0.01 1.0 0.0 38.6817305917 0.0 0.0
12 -6.7752 -2.2584 1.51025 0.01 1.0 0.0 38.6817305917 0.0 0.0
1 -7.6514592 -3.1346592 0.0 0.01 1.0 0.0 38.6817305917 0.0 0.0
1 -8.1573408 -0.8762592 1.51025 0.01 1.0 0.0 38.6817305917 0.0 0.0
1 -5.8989408 -1.3821408 0.0 0.01 1.0 0.0 38.6817305917 0.0 0.0
1 -5.3930592 -3.6405408 1.51025 0.01 1.0 0.0 38.6817305917 0.0 0.0
12 -9.0336 -4.5168 3.0205 0.01 1.0 0.0 38.6817305917 0.0 0.0
12 -6.7752 -2.2584 4.53075 0.01 1.0 0.0 38.6817305917 0.0 0.0
1 -7.6514592 -3.1346592 3.0205 0.01 1.0 0.0 38.6817305917 0.0 0.0
1 -8.1573408 -0.8762592 4.53075 0.01 1.0 0.0 38.6817305917 0.0 0.0
1 -5.8989408 -1.3821408 3.0205 0.01 1.0 0.0 38.6817305917 0.0 0.0
1 -5.3930592 -3.6405408 4.53075 0.01 1.0 0.0 38.6817305917 0.0 0.0
12 -9.0336 -4.5168 6.041 0.01 1.0 0.0 38.6817305917 0.0 0.0
12 -6.7752 -2.2584 7.55125 0.01 1.0 0.0 38.6817305917 0.0 0.0
1 -7.6514592 -3.1346592 6.041 0.01 1.0 0.0 38.6817305917 0.0 0.0
1 -8.1573408 -0.8762592 7.55125 0.01 1.0 0.0 38.6817305917 0.0 0.0
1 -5.8989408 -1.3821408 6.041 0.01 1.0 0.0 38.6817305917 0.0 0.0
1 -5.3930592 -3.6405408 7.55125 0.01 1.0 0.0 38.6817305917 0.0 0.0
12 -9.0336 0.0 -6.041 0.01 1.0 0.0 38.6817305917 0.0 0.0
12 -6.7752 2.2584 -4.53075 0.01 1.0 0.0 38.6817305917 0.0 0.0
1 -7.6514592 1.3821408 -6.041 0.01 1.0 0.0 38.6817305917 0.0 0.0
1 -8.1573408 3.6405408 -4.53075 0.01 1.0 0.0 38.6817305917 0.0 0.0
1 -5.8989408 3.1346592 -6.041 0.01 1.0 0.0 38.6817305917 0.0 0.0
1 -5.3930592 0.8762592 -4.53075 0.01 1.0 0.0 38.6817305917 0.0 0.0
12 -9.0336 0.0 -3.0205 0.01 1.0 0.0 38.6817305917 0.0 0.0
12 -6.7752 2.2584 -1.51025 0.01 1.0 0.0 38.6817305917 0.0 0.0
1 -7.6514592 1.3821408 -3.0205 0.01 1.0 0.0 38.6817305917 0.0 0.0
1 -8.1573408 3.6405408 -1.51025 0.01 1.0 0.0 38.6817305917 0.0 0.0
1 -5.8989408 3.1346592 -3.0205 0.01 1.0 0.0 38.6817305917 0.0 0.0
1 -5.3930592 0.8762592 -1.51025 0.01 1.0 0.0 38.6817305917 0.0 0.0
12 -9.0336 0.0 0.0 0.01 1.0 0.0 38.6817305917 0.0 0.0
12 -6.7752 2.2584 1.51025 0.01 1.0 0.0 38.6817305917 0.0 0.0
1 -7.6514592 1.3821408 0.0 0.01 1.0 0.0 38.6817305917 0.0 0.0
1 -8.1573408 3.6405408 1.51025 0.01 1.0 0.0 38.6817305917 0.0 0.0
1 -5.8989408 3.1346592 0.0 0.01 1.0 0.0 38.6817305917 0.0 0.0
1 -5.3930592 0.8762592 1.51025 0.01 1.0 0.0 38.6817305917 0.0 0.0
12 -9.0336 0.0 3.0205 0.01 1.0 0.0 38.6817305917 0.0 0.0
12 -6.7752 2.2584 4.53075 0.01 1.0 0.0 38.6817305917 0.0 0.0
1 -7.6514592 1.3821408 3.0205 0.01 1.0 0.0 38.6817305917 0.0 0.0
1 -8.1573408 3.6405408 4.53075 0.01 1.0 0.0 38.6817305917 0.0 0.0
1 -5.8989408 3.1346592 3.0205 0.01 1.0 0.0 38.6817305917 0.0 0.0
1 -5.3930592 0.8762592 4.53075 0.01 1.0 0.0 38.6817305917 0.0 0.0
12 -9.0336 0.0 6.041 0.01 1.0 0.0 38.6817305917 0.0 0.0
12 -6.7752 2.2584 7.55125 0.01 1.0 0.0 38.6817305917 0.0 0.0
1 -7.6514592 1.3821408 6.041 0.01 1.0 0.0 38.6817305917 0.0 0.0
1 -8.1573408 3.6405408 7.55125 0.01 1.0 0.0 38.6817305917 0.0 0.0
1 -5.8989408 3.1346592 6.041 0.01 1.0 0.0 38.6817305917 0.0 0.0
1 -5.3930592 0.8762592 7.55125 0.01 1.0 0.0 38.6817305917 0.0 0.0
12 -9.0336 4.5168 -6.041 0.01 1.0 0.0 38.6817305917 0.0 0.0
12 -6.7752 6.7752 -4.53075 0.01 1.0 0.0 38.6817305917 0.0 0.0
1 -7.6514592 5.8989408 -6.041 0.01 1.0 0.0 38.6817305917 0.0 0.0
1 -8.1573408 8.1573408 -4.53075 0.01 1.0 0.0 38.6817305917 0.0 0.0
1 -5.8989408 7.6514592 -6.041 0.01 1.0 0.0 38.6817305917 0.0 0.0
1 -5.3930592 5.3930592 -4.53075 0.01 1.0 0.0 38.6817305917 0.0 0.0
12 -9.0336 4.5168 -3.0205 0.01 1.0 0.0 38.6817305917 0.0 0.0
12 -6.7752 6.7752 -1.51025 0.01 1.0 0.0 38.6817305917 0.0 0.0
1 -7.6514592 5.8989408 -3.0205 0.01 1.0 0.0 38.6817305917 0.0 0.0
1 -8.1573408 8.1573408 -1.51025 0.01 1.0 0.0 38.6817305917 0.0 0.0
1 -5.8989408 7.6514592 -3.0205 0.01 1.0 0.0 38.6817305917 0.0 0.0
1 -5.3930592 5.3930592 -1.51025 0.01 1.0 0.0 38.6817305917 0.0 0.0
12 -9.0336 4.5168 0.0 0.01 1.0 0.0 38.6817305917 0.0 0.0
12 -6.7752 6.7752 1.51025 0.01 1.0 0.0 38.6817305917 0.0 0.0
1 -7.6514592 5.8989408 0.0 0.01 1.0 0.0 38.6817305917 0.0 0.0
1 -8.1573408 8.1573408 1.51025 0.01 1.0 0.0 38.6817305917 0.0 0.0
1 -5.8989408 7.6514592 0.0 0.01 1.0 0.0 38.6817305917 0.0 0.0
1 -5.3930592 5.3930592 1.51025 0.01 1.0 0.0 38.6817305917 0.0 0.0
12 -9.0336 4.5168 3.0205 0.01 1.0 0.0 38.6817305917 0.0 0.0
12 -6.7752 6.7752 4.53075 0.01 1.0 0.0 38.6817305917 0.0 0.0
1 -7.6514592 5.8989408 3.0205 0.01 1.0 0.0 38.6817305917 0.0 0.0
1 -8.1573408 8.1573408 4.53075 0.01 1.0 0.0 38.6817305917 0.0 0.0
1 -5.8989408 7.6514592 3.0205 0.01 1.0 0.0 38.6817305917 0.0 0.0
1 -5.3930592 5.3930592 4.53075 0.01 1.0 0.0 38.6817305917 0.0 0.0
12 -9.0336 4.5168 6.041 0.01 1.0 0.0 38.6817305917 0.0 0.0
12 -6.7752 6.7752 7.55125 0.01 1.0 0.0 38.6817305917 0.0 0.0
1 -7.6514592 5.8989408 6.041 0.01 1.0 0.0 38.6817305917 0.0 0.0
1 -8.1573408 8.1573408 7.55125 0.01 1.0 0.0 38.6817305917 0.0 0.0
1 -5.8989408 7.6514592 6.041 0.01 1.0 0.0 38.6817305917 0.0 0.0
1 -5.3930592 5.3930592 7.55125 0.01 1.0 0.0 38.6817305917 0.0 0.0
12 -9.0336 9.0336 -6.041 0.01 1.0 0.0 38.6817305917 0.0 0.0
12 -6.7752 11.292 -4.53075 0.01 1.0 0.0 38.6817305917 0.0 0.0
1 -7.6514592 10.4157408 -6.041 0.01 1.0 0.0 38.6817305917 0.0 0.0
1 -8.1573408 12.6741408 -4.53075 0.01 1.0 0.0 38.6817305917 0.0 0.0
1 -5.8989408 12.1682592 -6.041 0.01 1.0 0.0 38.6817305917 0.0 0.0
1 -5.3930592 9.9098592 -4.53075 0.01 1.0 0.0 38.6817305917 0.0 0.0
12 -9.0336 9.0336 -3.0205 0.01 1.0 0.0 38.6817305917 0.0 0.0
12 -6.7752 11.292 -1.51025 0.01 1.0 0.0 38.6817305917 0.0 0.0
1 -7.6514592 10.4157408 -3.0205 0.01 1.0 0.0 38.6817305917 0.0 0.0
1 -8.1573408 12.6741408 -1.51025 0.01 1.0 0.0 38.6817305917 0.0 0.0
1 -5.8989408 12.1682592 -3.0205 0.01 1.0 0.0 38.6817305917 0.0 0.0
1 -5.3930592 9.9098592 -1.51025 0.01 1.0 0.0 38.6817305917 0.0 0.0
12 -9.0336 9.0336 0.0 0.01 1.0 0.0 38.6817305917 0.0 0.0
12 -6.7752 11.292 1.51025 0.01 1.0 0.0 38.6817305917 0.0 0.0
1 -7.6514592 10.4157408 0.0 0.01 1.0 0.0 38.6817305917 0.0 0.0
1 -8.1573408 12.6741408 1.51025 0.01 1.0 0.0 38.6817305917 0.0 0.0
1 -5.8989408 12.1682592 0.0 0.01 1.0 0.0 38.6817305917 0.0 0.0
1 -5.3930592 9.9098592 1.51025 0.01 1.0 0.0 38.6817305917 0.0 0.0
12 -9.0336 9.0336 3.0205 0.01 1.0 0.0 38.6817305917 0.0 0.0
12 -6.7752 11.292 4.53075 0.01 1.0 0.0 38.6817305917 0.0 0.0
1 -7.6514592 10.4157408 3.0205 0.01 1.0 0.0 38.6817305917 0.0 0.0
1 -8.1573408 12.6741408 4.53075 0.01 1.0 0.0 38.6817305917 0.0 0.0
1 -5.8989408 12.1682592 3.0205 0.01 1.0 0.0 38.6817305917 0.0 0.0
1 -5.3930592 9.9098592 4.53075 0.01 1.0 0.0 38.6817305917 0.0 0.0
12 -9.0336 9.0336 6.041 0.01 1.0 0.0 38.6817305917 0.0 0.0
12 -6.7752 11.292 7.55125 0.01 1.0 0.0 38.6817305917 0.0 0.0
1 -7.6514592 10.4157408 6.041 0.01 1.0 0.0 38.6817305917 0.0 0.0
1 -8.1573408 12.6741408 7.55125 0.01 1.0 0.0 38.6817305917 0.0 0.0
1 -5.8989408 12.1682592 6.041 0.01 1.0 0.0 38.6817305917 0.0 0.0
1 -5.3930592 9.9098592 7.55125 0.01 1.0 0.0 38.6817305917 0.0 0.0
12 -4.5168 -9.0336 -6.041 0.01 1.0 0.0 38.6817305917 0.0 0.0
12 -2.2584 -6.7752 -4.53075 0.01 1.0 0.0 38.6817305917 0.0 0.0
1 -3.1346592 -7.6514592 -6.041 0.01 1.0 0.0 38.6817305917 0.0 0.0
1 -3.6405408 -5.3930592 -4.53075 0.01 1.0 0.0 38.6817305917 0.0 0.0
1 -1.3821408 -5.8989408 -6.041 0.01 1.0 0.0 38.6817305917 0.0 0.0
1 -0.8762592 -8.1573408 -4.53075 0.01 1.0 0.0 38.6817305917 0.0 0.0
12 -4.5168 -9.0336 -3.0205 0.01 1.0 0.0 38.6817305917 0.0 0.0
12 -2.2584 -6.7752 -1.51025 0.01 1.0 0.0 38.6817305917 0.0 0.0
1 -3.1346592 -7.6514592 -3.0205 0.01 1.0 0.0 38.6817305917 0.0 0.0
1 -3.6405408 -5.3930592 -1.51025 0.01 1.0 0.0 38.6817305917 0.0 0.0
1 -1.3821408 -5.8989408 -3.0205 0.01 1.0 0.0 38.6817305917 0.0 0.0
1 -0.8762592 -8.1573408 -1.51025 0.01 1.0 0.0 38.6817305917 0.0 0.0
12 -4.5168 -9.0336 0.0 0.01 1.0 0.0 38.6817305917 0.0 0.0
12 -2.2584 -6.7752 1.51025 0.01 1.0 0.0 38.6817305917 0.0 0.0
1 -3.1346592 -7.6514592 0.0 0.01 1.0 0.0 38.6817305917 0.0 0.0
1 -3.6405408 -5.3930592 1.51025 0.01 1.0 0.0 38.6817305917 0.0 0.0
1 -1.3821408 -5.8989408 0.0 0.01 1.0 0.0 38.6817305917 0.0 0.0
1 -0.8762592 -8.1573408 1.51025 0.01 1.0 0.0 38.6817305917 0.0 0.0
12 -4.5168 -9.0336 3.0205 0.01 1.0 0.0 38.6817305917 0.0 0.0
12 -2.2584 -6.7752 4.53075 0.01 1.0 0.0 38.6817305917 0.0 0.0
1 -3.1346592 -7.6514592 3.0205 0.01 1.0 0.0 38.6817305917 0.0 0.0
1 -3.6405408 -5.3930592 4.53075 0.01 1.0 0.0 38.6817305917 0.0 0.0
1 -1.3821408 -5.8989408 3.0205 0.01 1.0 0.0 38.6817305917 0.0 0.0
1 -0.8762592 -8.1573408 4.53075 0.01 1.0 0.0 38.6817305917 0.0 0.0
12 -4.5168 -9.0336 6.041 0.01 1.0 0.0 38.6817305917 0.0 0.0
12 -2.2584 -6.7752 7.55125 0.01 1.0 0.0 38.6817305917 0.0 0.0
1 -3.1346592 -7.6514592 6.041 0.01 1.0 0.0 38.6817305917 0.0 0.0
1 -3.6405408 -5.3930592 7.55125 0.01 1.0 0.0 38.6817305917 0.0 0.0
1 -1.3821408 -5.8989408 6.041 0.01 1.0 0.0 38.6817305917 0.0 0.0
1 -0.8762592 -8.1573408 7.55125 0.01 1.0 0.0 38.6817305917 0.0 0.0
12 -4.5168 -4.5168 -6.041 0.01 1.0 0.0 38.6817305917 0.0 0.0
12 -2.2584 -2.2584 -4.53075 0.01 1.0 0.0 38.6817305917 0.0 0.0
1 -3.1346592 -3.1346592 -6.041 0.01 1.0 0.0 38.6817305917 0.0 0.0
1 -3.6405408 -0.8762592 -4.53075 0.01 1.0 0.0 38.6817305917 0.0 0.0
1 -1.3821408 -1.3821408 -6.041 0.01 1.0 0.0 38.6817305917 0.0 0.0
1 -0.8762592 -3.6405408 -4.53075 0.01 1.0 0.0 38.6817305917 0.0 0.0
12 -4.5168 -4.5168 -3.0205 0.01 1.0 0.0 38.6817305917 0.0 0.0
12 -2.2584 -2.2584 -1.51025 0.01 1.0 0.0 38.6817305917 0.0 0.0
1 -3.1346592 -3.1346592 -3.0205 0.01 1.0 0.0 38.6817305917 0.0 0.0
1 -3.6405408 -0.8762592 -1.51025 0.01 1.0 0.0 38.6817305917 0.0 0.0
1 -1.3821408 -1.3821408 -3.0205 0.01 1.0 0.0 38.6817305917 0.0 0.0
1 -0.8762592 -3.6405408 -1.51025 0.01 1.0 0.0 38.6817305917 0.0 0.0
12 -4.5168 -4.5168 0.0 0.01 1.0 0.0 38.6817305917 0.0 0.0
12 -2.2584 -2.2584 1.51025 0.01 1.0 0.0 38.6817305917 0.0 0.0
1 -3.1346592 -3.1346592 0.0 0.01 1.0 0.0 38.6817305917 0.0 0.0
1 -3.6405408 -0.8762592 1.51025 0.01 1.0 0.0 38.6817305917 0.0 0.0
1 -1.3821408 -1.3821408 0.0 0.01 1.0 0.0 38.6817305917 0.0 0.0
1 -0.8762592 -3.6405408 1.51025 0.01 1.0 0.0 38.6817305917 0.0 0.0
12 -4.5168 -4.5168 3.0205 0.01 1.0 0.0 38.6817305917 0.0 0.0
12 -2.2584 -2.2584 4.53075 0.01 1.0 0.0 38.6817305917 0.0 0.0
1 -3.1346592 -3.1346592 3.0205 0.01 1.0 0.0 38.6817305917 0.0 0.0
1 -3.6405408 -0.8762592 4.53075 0.01 1.0 0.0 38.6817305917 0.0 0.0
1 -1.3821408 -1.3821408 3.0205 0.01 1.0 0.0 38.6817305917 0.0 0.0
1 -0.8762592 -3.6405408 4.53075 0.01 1.0 0.0 38.6817305917 0.0 0.0
12 -4.5168 -4.5168 6.041 0.01 1.0 0.0 38.6817305917 0.0 0.0
12 -2.2584 -2.2584 7.55125 0.01 1.0 0.0 38.6817305917 0.0 0.0
1 -3.1346592 -3.1346592 6.041 0.01 1.0 0.0 38.6817305917 0.0 0.0
1 -3.6405408 -0.8762592 7.55125 0.01 1.0 0.0 38.6817305917 0.0 0.0
1 -1.3821408 -1.3821408 6.041 0.01 1.0 0.0 38.6817305917 0.0 0.0
1 -0.8762592 -3.6405408 7.55125 0.01 1.0 0.0 38.6817305917 0.0 0.0
12 -4.5168 0.0 -6.041 0.01 1.0 0.0 38.6817305917 0.0 0.0
12 -2.2584 2.2584 -4.53075 0.01 1.0 0.0 38.6817305917 0.0 0.0
1 -3.1346592 1.3821408 -6.041 0.01 1.0 0.0 38.6817305917 0.0 0.0
1 -3.6405408 3.6405408 -4.53075 0.01 1.0 0.0 38.6817305917 0.0 0.0
1 -1.3821408 3.1346592 -6.041 0.01 1.0 0.0 38.6817305917 0.0 0.0
1 -0.8762592 0.8762592 -4.53075 0.01 1.0 0.0 38.6817305917 0.0 0.0
12 -4.5168 0.0 -3.0205 0.01 1.0 0.0 38.6817305917 0.0 0.0
12 -2.2584 2.2584 -1.51025 0.01 1.0 0.0 38.6817305917 0.0 0.0
1 -3.1346592 1.3821408 -3.0205 0.01 1.0 0.0 38.6817305917 0.0 0.0
1 -3.6405408 3.6405408 -1.51025 0.01 1.0 0.0 38.6817305917 0.0 0.0
1 -1.3821408 3.1346592 -3.0205 0.01 1.0 0.0 38.6817305917 0.0 0.0
1 -0.8762592 0.8762592 -1.51025 0.01 1.0 0.0 38.6817305917 0.0 0.0
12 -4.5168 0.0 0.0 0.01 1.0 0.0 38.6817305917 0.0 0.0
12 -2.2584 2.2584 1.51025 0.01 1.0 0.0 38.6817305917 0.0 0.0
1 -3.1346592 1.3821408 0.0 0.01 1.0 0.0 38.6817305917 0.0 0.0
1 -3.6405408 3.6405408 1.51025 0.01 1.0 0.0 38.6817305917 0.0 0.0
1 -1.3821408 3.1346592 0.0 0.01 1.0 0.0 38.6817305917 0.0 0.0
1 -0.8762592 0.8762592 1.51025 0.01 1.0 0.0 38.6817305917 0.0 0.0
12 -4.5168 0.0 3.0205 0.01 1.0 0.0 38.6817305917 0.0 0.0
12 -2.2584 2.2584 4.53075 0.01 1.0 0.0 38.6817305917 0.0 0.0
1 -3.1346592 1.3821408 3.0205 0.01 1.0 0.0 38.6817305917 0.0 0.0
1 -3.6405408 3.6405408 4.53075 0.01 1.0 0.0 38.6817305917 0.0 0.0
1 -1.3821408 3.1346592 3.0205 0.01 1.0 0.0 38.6817305917 0.0 0.0
1 -0.8762592 0.8762592 4.53075 0.01 1.0 0.0 38.6817305917 0.0 0.0
12 -4.5168 0.0 6.041 0.01 1.0 0.0 38.6817305917 0.0 0.0
12 -2.2584 2.2584 7.55125 0.01 1.0 0.0 38.6817305917 0.0 0.0
1 -3.1346592 1.3821408 6.041 0.01 1.0 0.0 38.6817305917 0.0 0.0
1 -3.6405408 3.6405408 7.55125 0.01 1.0 0.0 38.6817305917 0.0 0.0
1 -1.3821408 3.1346592 6.041 0.01 1.0 0.0 38.6817305917 0.0 0.0
1 -0.8762592 0.8762592 7.55125 0.01 1.0 0.0 38.6817305917 0.0 0.0
12 -4.5168 4.5168 -6.041 0.01 1.0 0.0 38.6817305917 0.0 0.0
12 -2.2584 6.7752 -4.53075 0.01 1.0 0.0 38.6817305917 0.0 0.0
1 -3.1346592 5.8989408 -6.041 0.01 1.0 0.0 38.6817305917 0.0 0.0
1 -3.6405408 8.1573408 -4.53075 0.01 1.0 0.0 38.6817305917 0.0 0.0
1 -1.3821408 7.6514592 -6.041 0.01 1.0 0.0 38.6817305917 0.0 0.0
1 -0.8762592 5.3930592 -4.53075 0.01 1.0 0.0 38.6817305917 0.0 0.0
12 -4.5168 4.5168 -3.0205 0.01 1.0 0.0 38.6817305917 0.0 0.0
12 -2.2584 6.7752 -1.51025 0.01 1.0 0.0 38.6817305917 0.0 0.0
1 -3.1346592 5.8989408 -3.0205 0.01 1.0 0.0 38.6817305917 0.0 0.0
1 -3.6405408 8.1573408 -1.51025 0.01 1.0 0.0 38.6817305917 0.0 0.0
1 -1.3821408 7.6514592 -3.0205 0.01 1.0 0.0 38.6817305917 0.0 0.0
1 -0.8762592 5.3930592 -1.51025 0.01 1.0 0.0 38.6817305917 0.0 0.0
12 -4.5168 4.5168 0.0 0.01 1.0 0.0 38.6817305917 0.0 0.0
12 -2.2584 6.7752 1.51025 0.01 1.0 0.0 38.6817305917 0.0 0.0
1 -3.1346592 5.8989408 0.0 0.01 1.0 0.0 38.6817305917 0.0 0.0
1 -3.6405408 8.1573408 1.51025 0.01 1.0 0.0 38.6817305917 0.0 0.0
1 -1.3821408 7.6514592 0.0 0.01 1.0 0.0 38.6817305917 0.0 0.0
1 -0.8762592 5.3930592 1.51025 0.01 1.0 0.0 38.6817305917 0.0 0.0
12 -4.5168 4.5168 3.0205 0.01 1.0 0.0 38.6817305917 0.0 0.0
12 -2.2584 6.7752 4.53075 0.01 1.0 0.0 38.6817305917 0.0 0.0
1 -3.1346592 5.8989408 3.0205 0.01 1.0 0.0 38.6817305917 0.0 0.0
1 -3.6405408 8.1573408 4.53075 0.01 1.0 0.0 38.6817305917 0.0 0.0
1 -1.3821408 7.6514592 3.0205 0.01 1.0 0.0 38.6817305917 0.0 0.0
1 -0.8762592 5.3930592 4.53075 0.01 1.0 0.0 38.6817305917 0.0 0.0
12 -4.5168 4.5168 6.041 0.01 1.0 0.0 38.6817305917 0.0 0.0
12 -2.2584 6.7752 7.55125 0.01 1.0 0.0 38.6817305917 0.0 0.0
1 -3.1346592 5.8989408 6.041 0.01 1.0 0.0 38.6817305917 0.0 0.0
1 -3.6405408 8.1573408 7.55125 0.01 1.0 0.0 38.6817305917 0.0 0.0
1 -1.3821408 7.6514592 6.041 0.01 1.0 0.0 38.6817305917 0.0 0.0
1 -0.8762592 5.3930592 7.55125 0.01 1.0 0.0 38.6817305917 0.0 0.0
12 -4.5168 9.0336 -6.041 0.01 1.0 0.0 38.6817305917 0.0 0.0
12 -2.2584 11.292 -4.53075 0.01 1.0 0.0 38.6817305917 0.0 0.0
1 -3.1346592 10.4157408 -6.041 0.01 1.0 0.0 38.6817305917 0.0 0.0
1 -3.6405408 12.6741408 -4.53075 0.01 1.0 0.0 38.6817305917 0.0 0.0
1 -1.3821408 12.1682592 -6.041 0.01 1.0 0.0 38.6817305917 0.0 0.0
1 -0.8762592 9.9098592 -4.53075 0.01 1.0 0.0 38.6817305917 0.0 0.0
12 -4.5168 9.0336 -3.0205 0.01 1.0 0.0 38.6817305917 0.0 0.0
12 -2.2584 11.292 -1.51025 0.01 1.0 0.0 38.6817305917 0.0 0.0
1 -3.1346592 10.4157408 -3.0205 0.01 1.0 0.0 38.6817305917 0.0 0.0
1 -3.6405408 12.6741408 -1.51025 0.01 1.0 0.0 38.6817305917 0.0 0.0
1 -1.3821408 12.1682592 -3.0205 0.01 1.0 0.0 38.6817305917 0.0 0.0
1 -0.8762592 9.9098592 -1.51025 0.01 1.0 0.0 38.6817305917 0.0 0.0
12 -4.5168 9.0336 0.0 0.01 1.0 0.0 38.6817305917 0.0 0.0
12 -2.2584 11.292 1.51025 0.01 1.0 0.0 38.6817305917 0.0 0.0
1 -3.1346592 10.4157408 0.0 0.01 1.0 0.0 38.6817305917 0.0 0.0
1 -3.6405408 12.6741408 1.51025 0.01 1.0 0.0 38.6817305917 0.0 0.0
1 -1.3821408 12.1682592 0.0 0.01 1.0 0.0 38.6817305917 0.0 0.0
1 -0.8762592 9.9098592 1.51025 0.01 1.0 0.0 38.6817305917 0.0 0.0
12 -4.5168 9.0336 3.0205 0.01 1.0 0.0 38.6817305917 0.0 0.0
12 -2.2584 11.292 4.53075 0.01 1.0 0.0 38.6817305917 0.0 0.0
1 -3.1346592 10.4157408 3.0205 0.01 1.0 0.0 38.6817305917 0.0 0.0
1 -3.6405408 12.6741408 4.53075 0.01 1.0 0.0 38.6817305917 0.0 0.0
1 -1.3821408 12.1682592 3.0205 0.01 1.0 0.0 38.6817305917 0.0 0.0
1 -0.8762592 9.9098592 4.53075 0.01 1.0 0.0 38.6817305917 0.0 0.0
12 -4.5168 9.0336 6.041 0.01 1.0 0.0 38.6817305917 0.0 0.0
12 -2.2584 11.292 7.55125 0.01 1.0 0.0 38.6817305917 0.0 0.0
1 -3.1346592 10.4157408 6.041 0.01 1.0 0.0 38.6817305917 0.0 0.0
1 -3.6405408 12.6741408 7.55125 0.01 1.0 0.0 38.6817305917 0.0 0.0
1 -1.3821408 12.1682592 6.041 0.01 1.0 0.0 38.6817305917 0.0 0.0
1 -0.8762592 9.9098592 7.55125 0.01 1.0 0.0 38.6817305917 0.0 0.0
12 0.0 -9.0336 -6.041 0.01 1.0 0.0 38.6817305917 0.0 0.0
12 2.2584 -6.7752 -4.53075 0.01 1.0 0.0 38.6817305917 0.0 0.0
1 1.3821408 -7.6514592 -6.041 0.01 1.0 0.0 38.6817305917 0.0 0.0
1 0.8762592 -5.3930592 -4.53075 0.01 1.0 0.0 38.6817305917 0.0 0.0
1 3.1346592 -5.8989408 -6.041 0.01 1.0 0.0 38.6817305917 0.0 0.0
1 3.6405408 -8.1573408 -4.53075 0.01 1.0 0.0 38.6817305917 0.0 0.0
12 0.0 -9.0336 -3.0205 0.01 1.0 0.0 38.6817305917 0.0 0.0
12 2.2584 -6.7752 -1.51025 0.01 1.0 0.0 38.6817305917 0.0 0.0
1 1.3821408 -7.6514592 -3.0205 0.01 1.0 0.0 38.6817305917 0.0 0.0
1 0.8762592 -5.3930592 -1.51025 0.01 1.0 0.0 38.6817305917 0.0 0.0
1 3.1346592 -5.8989408 -3.0205 0.01 1.0 0.0 38.6817305917 0.0 0.0
1 3.6405408 -8.1573408 -1.51025 0.01 1.0 0.0 38.6817305917 0.0 0.0
12 0.0 -9.0336 0.0 0.01 1.0 0.0 38.6817305917 0.0 0.0
12 2.2584 -6.7752 1.51025 0.01 1.0 0.0 38.6817305917 0.0 0.0
1 1.3821408 -7.6514592 0.0 0.01 1.0 0.0 38.6817305917 0.0 0.0
1 0.8762592 -5.3930592 1.51025 0.01 1.0 0.0 38.6817305917 0.0 0.0
1 3.1346592 -5.8989408 0.0 0.01 1.0 0.0 38.6817305917 0.0 0.0
1 3.6405408 -8.1573408 1.51025 0.01 1.0 0.0 38.6817305917 0.0 0.0
12 0.0 -9.0336 3.0205 0.01 1.0 0.0 38.6817305917 0.0 0.0
12 2.2584 -6.7752 4.53075 0.01 1.0 0.0 38.6817305917 0.0 0.0
1 1.3821408 -7.6514592 3.0205 0.01 1.0 0.0 38.6817305917 0.0 0.0
1 0.8762592 -5.3930592 4.53075 0.01 1.0 0.0 38.6817305917 0.0 0.0
1 3.1346592 -5.8989408 3.0205 0.01 1.0 0.0 38.6817305917 0.0 0.0
1 3.6405408 -8.1573408 4.53075 0.01 1.0 0.0 38.6817305917 0.0 0.0
12 0.0 -9.0336 6.041 0.01 1.0 0.0 38.6817305917 0.0 0.0
12 2.2584 -6.7752 7.55125 0.01 1.0 0.0 38.6817305917 0.0 0.0
1 1.3821408 -7.6514592 6.041 0.01 1.0 0.0 38.6817305917 0.0 0.0
1 0.8762592 -5.3930592 7.55125 0.01 1.0 0.0 38.6817305917 0.0 0.0
1 3.1346592 -5.8989408 6.041 0.01 1.0 0.0 38.6817305917 0.0 0.0
1 3.6405408 -8.1573408 7.55125 0.01 1.0 0.0 38.6817305917 0.0 0.0
12 0.0 -4.5168 -6.041 0.01 1.0 0.0 38.6817305917 0.0 0.0
12 2.2584 -2.2584 -4.53075 0.01 1.0 0.0 38.6817305917 0.0 0.0
1 1.3821408 -3.1346592 -6.041 0.01 1.0 0.0 38.6817305917 0.0 0.0
1 0.8762592 -0.8762592 -4.53075 0.01 1.0 0.0 38.6817305917 0.0 0.0
1 3.1346592 -1.3821408 -6.041 0.01 1.0 0.0 38.6817305917 0.0 0.0
1 3.6405408 -3.6405408 -4.53075 0.01 1.0 0.0 38.6817305917 0.0 0.0
12 0.0 -4.5168 -3.0205 0.01 1.0 0.0 38.6817305917 0.0 0.0
12 2.2584 -2.2584 -1.51025 0.01 1.0 0.0 38.6817305917 0.0 0.0
1 1.3821408 -3.1346592 -3.0205 0.01 1.0 0.0 38.6817305917 0.0 0.0
1 0.8762592 -0.8762592 -1.51025 0.01 1.0 0.0 38.6817305917 0.0 0.0
1 3.1346592 -1.3821408 -3.0205 0.01 1.0 0.0 38.6817305917 0.0 0.0
1 3.6405408 -3.6405408 -1.51025 0.01 1.0 0.0 38.6817305917 0.0 0.0
12 0.0 -4.5168 0.0 0.01 1.0 0.0 38.6817305917 0.0 0.0
12 2.2584 -2.2584 1.51025 0.01 1.0 0.0 38.6817305917 0.0 0.0
1 1.3821408 -3.1346592 0.0 0.01 1.0 0.0 38.6817305917 0.0 0.0
1 0.8762592 -0.8762592 1.51025 0.01 1.0 0.0 38.6817305917 0.0 0.0
1 3.1346592 -1.3821408 0.0 0.01 1.0 0.0 38.6817305917 0.0 0.0
1 3.6405408 -3.6405408 1.51025 0.01 1.0 0.0 38.6817305917 0.0 0.0
12 0.0 -4.5168 3.0205 0.01 1.0 0.0 38.6817305917 0.0 0.0
12 2.2584 -2.2584 4.53075 0.01 1.0 0.0 38.6817305917 0.0 0.0
1 1.3821408 -3.1346592 3.0205 0.01 1.0 0.0 38.6817305917 0.0 0.0
1 0.8762592 -0.8762592 4.53075 0.01 1.0 0.0 38.6817305917 0.0 0.0
1 3.1346592 -1.3821408 3.0205 0.01 1.0 0.0 38.6817305917 0.0 0.0
1 3.6405408 -3.6405408 4.53075 0.01 1.0 0.0 38.6817305917 0.0 0.0
12 0.0 -4.5168 6.041 0.01 1.0 0.0 38.6817305917 0.0 0.0
12 2.2584 -2.2584 7.55125 0.01 1.0 0.0 38.6817305917 0.0 0.0
1 1.3821408 -3.1346592 6.041 0.01 1.0 0.0 38.6817305917 0.0 0.0
1 0.8762592 -0.8762592 7.55125 0.01 1.0 0.0 38.6817305917 0.0 0.0
1 3.1346592 -1.3821408 6.041 0.01 1.0 0.0 38.6817305917 0.0 0.0
1 3.6405408 -3.6405408 7.55125 0.01 1.0 0.0 38.6817305917 0.0 0.0
12 0.0 0.0 -6.041 0.01 1.0 0.0 38.6817305917 0.0 0.0
12 2.2584 2.2584 -4.53075 0.01 1.0 0.0 38.6817305917 0.0 0.0
1 1.3821408 1.3821408 -6.041 0.01 1.0 0.0 38.6817305917 0.0 0.0
1 0.8762592 3.6405408 -4.53075 0.01 1.0 0.0 38.6817305917 0.0 0.0
1 3.1346592 3.1346592 -6.041 0.01 1.0 0.0 38.6817305917 0.0 0.0
1 3.6405408 0.8762592 -4.53075 0.01 1.0 0.0 38.6817305917 0.0 0.0
12 0.0 0.0 -3.0205 0.01 1.0 0.0 38.6817305917 0.0 0.0
12 2.2584 2.2584 -1.51025 0.01 1.0 0.0 38.6817305917 0.0 0.0
1 1.3821408 1.3821408 -3.0205 0.01 1.0 0.0 38.6817305917 0.0 0.0
1 0.8762592 3.6405408 -1.51025 0.01 1.0 0.0 38.6817305917 0.0 0.0
1 3.1346592 3.1346592 -3.0205 0.01 1.0 0.0 38.6817305917 0.0 0.0
1 3.6405408 0.8762592 -1.51025 0.01 1.0 0.0 38.6817305917 0.0 0.0
12 0.0 0.0 0.0 0.01 1.0 0.0 38.6817305917 0.0 0.0
12 2.2584 2.2584 1.51025 0.01 1.0 0.0 38.6817305917 0.0 0.0
1 1.3821408 1.3821408 0.0 0.01 1.0 0.0 38.6817305917 0.0 0.0
1 0.8762592 3.6405408 1.51025 0.01 1.0 0.0 38.6817305917 0.0 0.0
1 3.1346592 3.1346592 0.0 0.01 1.0 0.0 38.6817305917 0.0 0.0
1 3.6405408 0.8762592 1.51025 0.01 1.0 0.0 38.6817305917 0.0 0.0
12 0.0 0.0 3.0205 0.01 1.0 0.0 38.6817305917 0.0 0.0
12 2.2584 2.2584 4.53075 0.01 1.0 0.0 38.6817305917 0.0 0.0
1 1.3821408 1.3821408 3.0205 0.01 1.0 0.0 38.6817305917 0.0 0.0
1 0.8762592 3.6405408 4.53075 0.01 1.0 0.0 38.6817305917 0.0 0.0
1 3.1346592 3.1346592 3.0205 0.01 1.0 0.0 38.6817305917 0.0 0.0
1 3.6405408 0.8762592 4.53075 0.01 1.0 0.0 38.6817305917 0.0 0.0
12 0.0 0.0 6.041 0.01 1.0 0.0 38.6817305917 0.0 0.0
12 2.2584 2.2584 7.55125 0.01 1.0 0.0 38.6817305917 0.0 0.0
1 1.3821408 1.3821408 6.041 0.01 1.0 0.0 38.6817305917 0.0 0.0
1 0.8762592 3.6405408 7.55125 0.01 1.0 0.0 38.6817305917 0.0 0.0
1 3.1346592 3.1346592 6.041 0.01 1.0 0.0 38.6817305917 0.0 0.0
1 3.6405408 0.8762592 7.55125 0.01 1.0 0.0 38.6817305917 0.0 0.0
12 0.0 4.5168 -6.041 0.01 1.0 0.0 38.6817305917 0.0 0.0
12 2.2584 6.7752 -4.53075 0.01 1.0 0.0 38.6817305917 0.0 0.0
1 1.3821408 5.8989408 -6.041 0.01 1.0 0.0 38.6817305917 0.0 0.0
1 0.8762592 8.1573408 -4.53075 0.01 1.0 0.0 38.6817305917 0.0 0.0
1 3.1346592 7.6514592 -6.041 0.01 1.0 0.0 38.6817305917 0.0 0.0
1 3.6405408 5.3930592 -4.53075 0.01 1.0 0.0 38.6817305917 0.0 0.0
12 0.0 4.5168 -3.0205 0.01 1.0 0.0 38.6817305917 0.0 0.0
12 2.2584 6.7752 -1.51025 0.01 1.0 0.0 38.6817305917 0.0 0.0
1 1.3821408 5.8989408 -3.0205 0.01 1.0 0.0 38.6817305917 0.0 0.0
1 0.8762592 8.1573408 -1.51025 0.01 1.0 0.0 38.6817305917 0.0 0.0
1 3.1346592 7.6514592 -3.0205 0.01 1.0 0.0 38.6817305917 0.0 0.0
1 3.6405408 5.3930592 -1.51025 0.01 1.0 0.0 38.6817305917 0.0 0.0
12 0.0 4.5168 0.0 0.01 1.0 0.0 38.6817305917 0.0 0.0
12 2.2584 6.7752 1.51025 0.01 1.0 0.0 38.6817305917 0.0 0.0
1 1.3821408 5.8989408 0.0 0.01 1.0 0.0 38.6817305917 0.0 0.0
1 0.8762592 8.1573408 1.51025 0.01 1.0 0.0 38.6817305917 0.0 0.0
1 3.1346592 7.6514592 0.0 0.01 1.0 0.0 38.6817305917 0.0 0.0
1 3.6405408 5.3930592 1.51025 0.01 1.0 0.0 38.6817305917 0.0 0.0
12 0.0 4.5168 3.0205 0.01 1.0 0.0 38.6817305917 0.0 0.0
12 2.2584 6.7752 4.53075 0.01 1.0 0.0 38.6817305917 0.0 0.0
1 1.3821408 5.8989408 3.0205 0.01 1.0 0.0 38.6817305917 0.0 0.0
1 0.8762592 8.1573408 4.53075 0.01 1.0 0.0 38.6817305917 0.0 0.0
1 3.1346592 7.6514592 3.0205 0.01 1.0 0.0 38.6817305917 0.0 0.0
1 3.6405408 5.3930592 4.53075 0.01 1.0 0.0 38.6817305917 0.0 0.0
12 0.0 4.5168 6.041 0.01 1.0 0.0 38.6817305917 0.0 0.0
12 2.2584 6.7752 7.55125 0.01 1.0 0.0 38.6817305917 0.0 0.0
1 1.3821408 5.8989408 6.041 0.01 1.0 0.0 38.6817305917 0.0 0.0
1 0.8762592 8.1573408 7.55125 0.01 1.0 0.0 38.6817305917 0.0 0.0
1 3.1346592 7.6514592 6.041 0.01 1.0 0.0 38.6817305917 0.0 0.0
1 3.6405408 5.3930592 7.55125 0.01 1.0 0.0 38.6817305917 0.0 0.0
12 0.0 9.0336 -6.041 0.01 1.0 0.0 38.6817305917 0.0 0.0
12 2.2584 11.292 -4.53075 0.01 1.0 0.0 38.6817305917 0.0 0.0
1 1.3821408 10.4157408 -6.041 0.01 1.0 0.0 38.6817305917 0.0 0.0
1 0.8762592 12.6741408 -4.53075 0.01 1.0 0.0 38.6817305917 0.0 0.0
1 3.1346592 12.1682592 -6.041 0.01 1.0 0.0 38.6817305917 0.0 0.0
1 3.6405408 9.9098592 -4.53075 0.01 1.0 0.0 38.6817305917 0.0 0.0
12 0.0 9.0336 -3.0205 0.01 1.0 0.0 38.6817305917 0.0 0.0
12 2.2584 11.292 -1.51025 0.01 1.0 0.0 38.6817305917 0.0 0.0
1 1.3821408 10.4157408 -3.0205 0.01 1.0 0.0 38.6817305917 0.0 0.0
1 0.8762592 12.6741408 -1.51025 0.01 1.0 0.0 38.6817305917 0.0 0.0
1 3.1346592 12.1682592 -3.0205 0.01 1.0 0.0 38.6817305917 0.0 0.0
1 3.6405408 9.9098592 -1.51025 0.01 1.0 0.0 38.6817305917 0.0 0.0
12 0.0 9.0336 0.0 0.01 1.0 0.0 38.6817305917 0.0 0.0
12 2.2584 11.292 1.51025 0.01 1.0 0.0 38.6817305917 0.0 0.0
1 1.3821408 10.4157408 0.0 0.01 1.0 0.0 38.6817305917 0.0 0.0
1 0.8762592 12.6741408 1.51025 0.01 1.0 0.0 38.6817305917 0.0 0.0
1 3.1346592 12.1682592 0.0 0.01 1.0 0.0 38.6817305917 0.0 0.0
1 3.6405408 9.9098592 1.51025 0.01 1.0 0.0 38.6817305917 0.0 0.0
12 0.0 9.0336 3.0205 0.01 1.0 0.0 38.6817305917 0.0 0.0
12 2.2584 11.292 4.53075 0.01 1.0 0.0 38.6817305917 0.0 0.0
1 1.3821408 10.4157408 3.0205 0.01 1.0 0.0 38.6817305917 0.0 0.0
1 0.8762592 12.6741408 4.53075 0.01 1.0 0.0 38.6817305917 0.0 0.0
1 3.1346592 12.1682592 3.0205 0.01 1.0 0.0 38.6817305917 0.0 0.0
1 3.6405408 9.9098592 4.53075 0.01 1.0 0.0 38.6817305917 0.0 0.0
12 0.0 9.0336 6.041 0.01 1.0 0.0 38.6817305917 0.0 0.0
12 2.2584 11.292 7.55125 0.01 1.0 0.0 38.6817305917 0.0 0.0
1 1.3821408 10.4157408 6.041 0.01 1.0 0.0 38.6817305917 0.0 0.0
1 0.8762592 12.6741408 7.55125 0.01 1.0 0.0 38.6817305917 0.0 0.0
1 3.1346592 12.1682592 6.041 0.01 1.0 0.0 38.6817305917 0.0 0.0
1 3.6405408 9.9098592 7.55125 0.01 1.0 0.0 38.6817305917 0.0 0.0
12 4.5168 -9.0336 -6.041 0.01 1.0 0.0 38.6817305917 0.0 0.0
12 6.7752 -6.7752 -4.53075 0.01 1.0 0.0 38.6817305917 0.0 0.0
1 5.8989408 -7.6514592 -6.041 0.01 1.0 0.0 38.6817305917 0.0 0.0
1 5.3930592 -5.3930592 -4.53075 0.01 1.0 0.0 38.6817305917 0.0 0.0
1 7.6514592 -5.8989408 -6.041 0.01 1.0 0.0 38.6817305917 0.0 0.0
1 8.1573408 -8.1573408 -4.53075 0.01 1.0 0.0 38.6817305917 0.0 0.0
12 4.5168 -9.0336 -3.0205 0.01 1.0 0.0 38.6817305917 0.0 0.0
12 6.7752 -6.7752 -1.51025 0.01 1.0 0.0 38.6817305917 0.0 0.0
1 5.8989408 -7.6514592 -3.0205 0.01 1.0 0.0 38.6817305917 0.0 0.0
1 5.3930592 -5.3930592 -1.51025 0.01 1.0 0.0 38.6817305917 0.0 0.0
1 7.6514592 -5.8989408 -3.0205 0.01 1.0 0.0 38.6817305917 0.0 0.0
1 8.1573408 -8.1573408 -1.51025 0.01 1.0 0.0 38.6817305917 0.0 0.0
12 4.5168 -9.0336 0.0 0.01 1.0 0.0 38.6817305917 0.0 0.0
12 6.7752 -6.7752 1.51025 0.01 1.0 0.0 38.6817305917 0.0 0.0
1 5.8989408 -7.6514592 0.0 0.01 1.0 0.0 38.6817305917 0.0 0.0
1 5.3930592 -5.3930592 1.51025 0.01 1.0 0.0 38.6817305917 0.0 0.0
1 7.6514592 -5.8989408 0.0 0.01 1.0 0.0 38.6817305917 0.0 0.0