ITEM: TIMESTEP
0
ITEM: NUMBER OF ATOMS
5849
ITEM: BOX BOUNDS pp pp pp
-44.646 51.024
-77.3291403547 88.3761604054
-72.9066127042 83.3218430905
ITEM: ATOMS type x y z Stdvq Molarfraction chemicalmultp thermalmultp chemicalmultpbcc thermalmultpbcc
2 -17.5395 -6.4441000507 -5.8585703863 0.01 0.0 0.0 38.6817305917 0 0
1 -17.5395 -6.4440900507 -2.6038051932 0.01 1.0 0.0 38.6817305917 0 0
2 -17.5395 -8.2852600507 -3.2547551932 0.01 0.0 0.0 38.6817305917 0 0
2 -17.5395 -8.2852600507 -1.9528551932 0.01 0.0 0.0 38.6817305917 0 0
2 -17.5395 -6.4441000507 -4.5566651932 0.01 0.0 0.0 38.6817305917 0 0
2 -17.5395 -6.4441000507 -0.6509551932 0.01 0.0 0.0 38.6817305917 0 0
1 -17.5395 -8.2852600507 0.0 0.01 1.0 0.0 38.6817305917 0 0
1 -17.5395 -6.4440900507 2.60381 0.01 1.0 0.0 38.6817305917 0 0
2 -17.5395 -8.2852600507 1.95286 0.01 0.0 0.0 38.6817305917 0 0
2 -17.5395 -8.2852600507 3.25476 0.01 0.0 0.0 38.6817305917 0 0
2 -17.5395 -6.4441000507 0.65095 0.01 0.0 0.0 38.6817305917 0 0
2 -17.5395 -6.4441000507 4.55666 0.01 0.0 0.0 38.6817305917 0 0
2 -17.5395 -6.4441000507 5.8585651932 0.01 0.0 0.0 38.6817305917 0 0
1 -17.5395 -0.9205800253 -7.8114203863 0.01 1.0 0.0 38.6817305917 0 0
2 -17.5395 -4.6029250253 -6.5095203863 0.01 0.0 0.0 38.6817305917 0 0
2 -17.5395 -2.7617500253 -8.4623703863 0.01 0.0 0.0 38.6817305917 0 0
2 -17.5395 -2.7617500253 -7.1604703863 0.01 0.0 0.0 38.6817305917 0 0
2 -17.5395 -0.9205900253 -5.8585703863 0.01 0.0 0.0 38.6817305917 0 0
1 -19.134 -3.6823400253 -2.6038051932 0.01 1.0 0.0 38.6817305917 0 0
1 -17.5395 -2.7617500253 -5.2076151932 0.01 1.0 0.0 38.6817305917 0 0
1 -17.5395 -0.9205800253 -2.6038051932 0.01 1.0 0.0 38.6817305917 0 0
2 -17.5395 -4.6029250253 -3.9057151932 0.01 0.0 0.0 38.6817305917 0 0
2 -19.134 -1.8411700253 -3.9057151932 0.01 0.0 0.0 38.6817305917 0 0
2 -17.5395 -4.6029250253 -1.3019051932 0.01 0.0 0.0 38.6817305917 0 0
2 -19.134 -1.8411700253 -1.3019051932 0.01 0.0 0.0 38.6817305917 0 0
2 -17.5395 -2.7617500253 -3.2547551932 0.01 0.0 0.0 38.6817305917 0 0
2 -17.5395 -2.7617500253 -1.9528551932 0.01 0.0 0.0 38.6817305917 0 0
2 -19.134 -3.6823400253 -0.6509551932 0.01 0.0 0.0 38.6817305917 0 0
2 -17.5395 -0.9205900253 -4.5566651932 0.01 0.0 0.0 38.6817305917 0 0
2 -17.5395 -0.9205900253 -0.6509551932 0.01 0.0 0.0 38.6817305917 0 0
1 -19.134 -5.5235100253 0.0 0.01 1.0 0.0 38.6817305917 0 0
1 -19.134 -3.6823400253 2.60381 0.01 1.0 0.0 38.6817305917 0 0
1 -17.5395 -2.7617500253 0.0 0.01 1.0 0.0 38.6817305917 0 0
1 -17.5395 -0.9205800253 2.60381 0.01 1.0 0.0 38.6817305917 0 0
2 -17.5395 -4.6029250253 1.3019 0.01 0.0 0.0 38.6817305917 0 0
2 -19.134 -1.8411700253 1.3019 0.01 0.0 0.0 38.6817305917 0 0
2 -17.5395 -4.6029250253 3.90571 0.01 0.0 0.0 38.6817305917 0 0
2 -19.134 -1.8411700253 3.90571 0.01 0.0 0.0 38.6817305917 0 0
2 -17.5395 -2.7617500253 1.95286 0.01 0.0 0.0 38.6817305917 0 0
2 -17.5395 -2.7617500253 3.25476 0.01 0.0 0.0 38.6817305917 0 0
2 -19.134 -3.6823400253 0.65095 0.01 0.0 0.0 38.6817305917 0 0
2 -17.5395 -0.9205900253 0.65095 0.01 0.0 0.0 38.6817305917 0 0
2 -17.5395 -0.9205900253 4.55666 0.01 0.0 0.0 38.6817305917 0 0
1 -17.5395 -2.7617500253 5.2076151932 0.01 1.0 0.0 38.6817305917 0 0
1 -17.5395 -0.9205800253 7.8114251932 0.01 1.0 0.0 38.6817305917 0 0
2 -17.5395 -4.6029250253 6.5095151932 0.01 0.0 0.0 38.6817305917 0 0
2 -17.5395 -2.7617500253 7.1604751932 0.01 0.0 0.0 38.6817305917 0 0
2 -17.5395 -2.7617500253 8.4623751932 0.01 0.0 0.0 38.6817305917 0 0
2 -17.5395 -0.9205900253 5.8585651932 0.01 0.0 0.0 38.6817305917 0 0
1 -17.5395 4.60293 -7.8114203863 0.01 1.0 0.0 38.6817305917 0 0
2 -17.5395 0.920585 -9.1133303863 0.01 0.0 0.0 38.6817305917 0 0
2 -17.5395 0.920585 -6.5095203863 0.01 0.0 0.0 38.6817305917 0 0
2 -17.5395 2.76176 -8.4623703863 0.01 0.0 0.0 38.6817305917 0 0
2 -17.5395 2.76176 -7.1604703863 0.01 0.0 0.0 38.6817305917 0 0
2 -17.5395 4.60292 -5.8585703863 0.01 0.0 0.0 38.6817305917 0 0
1 -19.134 0.0 -5.2076151932 0.01 1.0 0.0 38.6817305917 0 0
1 -19.134 1.84117 -2.6038051932 0.01 1.0 0.0 38.6817305917 0 0
1 -17.5395 2.76176 -5.2076151932 0.01 1.0 0.0 38.6817305917 0 0
1 -17.5395 4.60293 -2.6038051932 0.01 1.0 0.0 38.6817305917 0 0
2 -17.5395 0.920585 -3.9057151932 0.01 0.0 0.0 38.6817305917 0 0
2 -19.134 3.68234 -3.9057151932 0.01 0.0 0.0 38.6817305917 0 0
2 -17.5395 0.920585 -1.3019051932 0.01 0.0 0.0 38.6817305917 0 0
2 -19.134 3.68234 -1.3019051932 0.01 0.0 0.0 38.6817305917 0 0
2 -19.134 0.0 -3.2547551932 0.01 0.0 0.0 38.6817305917 0 0
2 -19.134 0.0 -1.9528551932 0.01 0.0 0.0 38.6817305917 0 0
2 -17.5395 2.76176 -3.2547551932 0.01 0.0 0.0 38.6817305917 0 0
2 -17.5395 2.76176 -1.9528551932 0.01 0.0 0.0 38.6817305917 0 0
2 -19.134 1.84117 -4.5566651932 0.01 0.0 0.0 38.6817305917 0 0
2 -19.134 1.84117 -0.6509551932 0.01 0.0 0.0 38.6817305917 0 0
2 -17.5395 4.60292 -4.5566651932 0.01 0.0 0.0 38.6817305917 0 0
2 -17.5395 4.60292 -0.6509551932 0.01 0.0 0.0 38.6817305917 0 0
1 -19.134 0.0 0.0 0.01 1.0 0.0 38.6817305917 0 0
1 -19.134 1.84117 2.60381 0.01 1.0 0.0 38.6817305917 0 0
1 -17.5395 2.76176 0.0 0.01 1.0 0.0 38.6817305917 0 0
1 -17.5395 4.60293 2.60381 0.01 1.0 0.0 38.6817305917 0 0
2 -17.5395 0.920585 1.3019 0.01 0.0 0.0 38.6817305917 0 0
2 -19.134 3.68234 1.3019 0.01 0.0 0.0 38.6817305917 0 0
2 -17.5395 0.920585 3.90571 0.01 0.0 0.0 38.6817305917 0 0
2 -19.134 3.68234 3.90571 0.01 0.0 0.0 38.6817305917 0 0
2 -19.134 0.0 1.95286 0.01 0.0 0.0 38.6817305917 0 0
2 -19.134 0.0 3.25476 0.01 0.0 0.0 38.6817305917 0 0
2 -17.5395 2.76176 1.95286 0.01 0.0 0.0 38.6817305917 0 0
2 -17.5395 2.76176 3.25476 0.01 0.0 0.0 38.6817305917 0 0
2 -19.134 1.84117 0.65095 0.01 0.0 0.0 38.6817305917 0 0
2 -19.134 1.84117 4.55666 0.01 0.0 0.0 38.6817305917 0 0
2 -17.5395 4.60292 0.65095 0.01 0.0 0.0 38.6817305917 0 0
2 -17.5395 4.60292 4.55666 0.01 0.0 0.0 38.6817305917 0 0
1 -19.134 0.0 5.2076151932 0.01 1.0 0.0 38.6817305917 0 0
1 -17.5395 2.76176 5.2076151932 0.01 1.0 0.0 38.6817305917 0 0
1 -17.5395 4.60293 7.8114251932 0.01 1.0 0.0 38.6817305917 0 0
2 -17.5395 0.920585 6.5095151932 0.01 0.0 0.0 38.6817305917 0 0
2 -17.5395 0.920585 9.1133251932 0.01 0.0 0.0 38.6817305917 0 0
2 -17.5395 2.76176 7.1604751932 0.01 0.0 0.0 38.6817305917 0 0
2 -17.5395 2.76176 8.4623751932 0.01 0.0 0.0 38.6817305917 0 0
2 -17.5395 4.60292 5.8585651932 0.01 0.0 0.0 38.6817305917 0 0
2 -17.5395 6.4440950253 -6.5095203863 0.01 0.0 0.0 38.6817305917 0 0
2 -17.5395 6.4440950253 -3.9057151932 0.01 0.0 0.0 38.6817305917 0 0
2 -17.5395 6.4440950253 -1.3019051932 0.01 0.0 0.0 38.6817305917 0 0
2 -17.5395 8.2852700253 -3.2547551932 0.01 0.0 0.0 38.6817305917 0 0
2 -17.5395 8.2852700253 -1.9528551932 0.01 0.0 0.0 38.6817305917 0 0
1 -19.134 5.5235100253 0.0 0.01 1.0 0.0 38.6817305917 0 0
1 -17.5395 8.2852700253 0.0 0.01 1.0 0.0 38.6817305917 0 0
2 -17.5395 6.4440950253 1.3019 0.01 0.0 0.0 38.6817305917 0 0
2 -17.5395 6.4440950253 3.90571 0.01 0.0 0.0 38.6817305917 0 0
2 -17.5395 8.2852700253 1.95286 0.01 0.0 0.0 38.6817305917 0 0
2 -17.5395 8.2852700253 3.25476 0.01 0.0 0.0 38.6817305917 0 0
2 -17.5395 6.4440950253 6.5095151932 0.01 0.0 0.0 38.6817305917 0 0
2 -14.3505 -11.967610076 -5.8585703863 0.01 0.0 0.0 38.6817305917 0 0
1 -14.3505 -11.967600076 -2.6038051932 0.01 1.0 0.0 38.6817305917 0 0
2 -14.3505 -11.967610076 -4.5566651932 0.01 0.0 0.0 38.6817305917 0 0
2 -14.3505 -11.967610076 -0.6509551932 0.01 0.0 0.0 38.6817305917 0 0
1 -14.3505 -13.808770076 0.0 0.01 1.0 0.0 38.6817305917 0 0
1 -14.3505 -11.967600076 2.60381 0.01 1.0 0.0 38.6817305917 0 0
2 -14.3505 -11.967610076 0.65095 0.01 0.0 0.0 38.6817305917 0 0
2 -14.3505 -11.967610076 4.55666 0.01 0.0 0.0 38.6817305917 0 0
2 -14.3505 -11.967610076 5.8585651932 0.01 0.0 0.0 38.6817305917 0 0
2 -14.3505 -6.4441000507 -11.0661855795 0.01 0.0 0.0 38.6817305917 0 0
1 -14.3505 -8.2852600507 -10.4152303863 0.01 1.0 0.0 38.6817305917 0 0
1 -14.3505 -6.4440900507 -7.8114203863 0.01 1.0 0.0 38.6817305917 0 0
2 -14.3505 -10.1264350507 -9.1133303863 0.01 0.0 0.0 38.6817305917 0 0
2 -15.945 -7.3646800507 -9.1133303863 0.01 0.0 0.0 38.6817305917 0 0
2 -14.3505 -10.1264350507 -6.5095203863 0.01 0.0 0.0 38.6817305917 0 0
2 -15.945 -7.3646800507 -6.5095203863 0.01 0.0 0.0 38.6817305917 0 0
2 -14.3505 -8.2852600507 -8.4623703863 0.01 0.0 0.0 38.6817305917 0 0
2 -14.3505 -8.2852600507 -7.1604703863 0.01 0.0 0.0 38.6817305917 0 0
2 -15.945 -9.2058500507 -5.8585703863 0.01 0.0 0.0 38.6817305917 0 0
2 -14.3505 -6.4441000507 -9.7642803863 0.01 0.0 0.0 38.6817305917 0 0
2 -14.3505 -6.4441000507 -5.8585703863 0.01 0.0 0.0 38.6817305917 0 0
1 -15.945 -9.2058500507 -2.6038051932 0.01 1.0 0.0 38.6817305917 0 0
1 -14.3505 -8.2852600507 -5.2076151932 0.01 1.0 0.0 38.6817305917 0 0
1 -14.3505 -6.4440900507 -2.6038051932 0.01 1.0 0.0 38.6817305917 0 0
2 -14.3505 -10.1264350507 -3.9057151932 0.01 0.0 0.0 38.6817305917 0 0
2 -15.945 -7.3646800507 -3.9057151932 0.01 0.0 0.0 38.6817305917 0 0
2 -14.3505 -10.1264350507 -1.3019051932 0.01 0.0 0.0 38.6817305917 0 0
2 -15.945 -7.3646800507 -1.3019051932 0.01 0.0 0.0 38.6817305917 0 0
2 -15.945 -11.0470200507 -3.2547551932 0.01 0.0 0.0 38.6817305917 0 0
2 -15.945 -11.0470200507 -1.9528551932 0.01 0.0 0.0 38.6817305917 0 0
2 -14.3505 -8.2852600507 -3.2547551932 0.01 0.0 0.0 38.6817305917 0 0
2 -14.3505 -8.2852600507 -1.9528551932 0.01 0.0 0.0 38.6817305917 0 0
2 -15.945 -9.2058500507 -4.5566651932 0.01 0.0 0.0 38.6817305917 0 0
2 -15.945 -9.2058500507 -0.6509551932 0.01 0.0 0.0 38.6817305917 0 0
2 -14.3505 -6.4441000507 -4.5566651932 0.01 0.0 0.0 38.6817305917 0 0
2 -14.3505 -6.4441000507 -0.6509551932 0.01 0.0 0.0 38.6817305917 0 0
1 -15.945 -11.0470200507 0.0 0.01 1.0 0.0 38.6817305917 0 0
1 -15.945 -9.2058500507 2.60381 0.01 1.0 0.0 38.6817305917 0 0
1 -14.3505 -8.2852600507 0.0 0.01 1.0 0.0 38.6817305917 0 0
1 -14.3505 -6.4440900507 2.60381 0.01 1.0 0.0 38.6817305917 0 0
2 -14.3505 -10.1264350507 1.3019 0.01 0.0 0.0 38.6817305917 0 0
2 -15.945 -7.3646800507 1.3019 0.01 0.0 0.0 38.6817305917 0 0
2 -14.3505 -10.1264350507 3.90571 0.01 0.0 0.0 38.6817305917 0 0
2 -15.945 -7.3646800507 3.90571 0.01 0.0 0.0 38.6817305917 0 0
2 -15.945 -11.0470200507 1.95286 0.01 0.0 0.0 38.6817305917 0 0
2 -15.945 -11.0470200507 3.25476 0.01 0.0 0.0 38.6817305917 0 0
2 -14.3505 -8.2852600507 1.95286 0.01 0.0 0.0 38.6817305917 0 0
2 -14.3505 -8.2852600507 3.25476 0.01 0.0 0.0 38.6817305917 0 0
2 -15.945 -9.2058500507 0.65095 0.01 0.0 0.0 38.6817305917 0 0
2 -15.945 -9.2058500507 4.55666 0.01 0.0 0.0 38.6817305917 0 0
2 -14.3505 -6.4441000507 0.65095 0.01 0.0 0.0 38.6817305917 0 0
2 -14.3505 -6.4441000507 4.55666 0.01 0.0 0.0 38.6817305917 0 0
1 -14.3505 -8.2852600507 5.2076151932 0.01 1.0 0.0 38.6817305917 0 0
1 -14.3505 -6.4440900507 7.8114251932 0.01 1.0 0.0 38.6817305917 0 0
2 -14.3505 -10.1264350507 6.5095151932 0.01 0.0 0.0 38.6817305917 0 0
2 -15.945 -7.3646800507 6.5095151932 0.01 0.0 0.0 38.6817305917 0 0
2 -14.3505 -10.1264350507 9.1133251932 0.01 0.0 0.0 38.6817305917 0 0
2 -15.945 -7.3646800507 9.1133251932 0.01 0.0 0.0 38.6817305917 0 0
2 -14.3505 -8.2852600507 7.1604751932 0.01 0.0 0.0 38.6817305917 0 0
2 -14.3505 -8.2852600507 8.4623751932 0.01 0.0 0.0 38.6817305917 0 0
2 -15.945 -9.2058500507 5.8585651932 0.01 0.0 0.0 38.6817305917 0 0
2 -14.3505 -6.4441000507 5.8585651932 0.01 0.0 0.0 38.6817305917 0 0
2 -14.3505 -6.4441000507 9.7642751932 0.01 0.0 0.0 38.6817305917 0 0
1 -14.3505 -8.2852600507 10.4152303863 0.01 1.0 0.0 38.6817305917 0 0
2 -14.3505 -6.4441000507 11.0661803863 0.01 0.0 0.0 38.6817305917 0 0
1 -14.3505 -0.9205800253 -13.0190355795 0.01 1.0 0.0 38.6817305917 0 0
2 -14.3505 -4.6029250253 -11.7171355795 0.01 0.0 0.0 38.6817305917 0 0
2 -15.945 -1.8411700253 -11.7171355795 0.01 0.0 0.0 38.6817305917 0 0
2 -14.3505 -2.7617500253 -12.3680855795 0.01 0.0 0.0 38.6817305917 0 0
2 -15.945 -3.6823400253 -11.0661855795 0.01 0.0 0.0 38.6817305917 0 0
2 -14.3505 -0.9205900253 -11.0661855795 0.01 0.0 0.0 38.6817305917 0 0
1 -15.945 -5.5235100253 -10.4152303863 0.01 1.0 0.0 38.6817305917 0 0
1 -15.945 -3.6823400253 -7.8114203863 0.01 1.0 0.0 38.6817305917 0 0
1 -14.3505 -2.7617500253 -10.4152303863 0.01 1.0 0.0 38.6817305917 0 0
1 -14.3505 -0.9205800253 -7.8114203863 0.01 1.0 0.0 38.6817305917 0 0
2 -14.3505 -4.6029250253 -9.1133303863 0.01 0.0 0.0 38.6817305917 0 0
2 -15.945 -1.8411700253 -9.1133303863 0.01 0.0 0.0 38.6817305917 0 0
2 -14.3505 -4.6029250253 -6.5095203863 0.01 0.0 0.0 38.6817305917 0 0
2 -15.945 -1.8411700253 -6.5095203863 0.01 0.0 0.0 38.6817305917 0 0
2 -15.945 -5.5235100253 -8.4623703863 0.01 0.0 0.0 38.6817305917 0 0
2 -15.945 -5.5235100253 -7.1604703863 0.01 0.0 0.0 38.6817305917 0 0
2 -14.3505 -2.7617500253 -8.4623703863 0.01 0.0 0.0 38.6817305917 0 0
2 -14.3505 -2.7617500253 -7.1604703863 0.01 0.0 0.0 38.6817305917 0 0
2 -15.945 -3.6823400253 -9.7642803863 0.01 0.0 0.0 38.6817305917 0 0
2 -15.945 -3.6823400253 -5.8585703863 0.01 0.0 0.0 38.6817305917 0 0
2 -14.3505 -0.9205900253 -9.7642803863 0.01 0.0 0.0 38.6817305917 0 0
2 -14.3505 -0.9205900253 -5.8585703863 0.01 0.0 0.0 38.6817305917 0 0
1 -15.945 -5.5235100253 -5.2076151932 0.01 1.0 0.0 38.6817305917 0 0
1 -15.945 -3.6823400253 -2.6038051932 0.01 1.0 0.0 38.6817305917 0 0
1 -14.3505 -2.7617500253 -5.2076151932 0.01 1.0 0.0 38.6817305917 0 0
1 -14.3505 -0.9205800253 -2.6038051932 0.01 1.0 0.0 38.6817305917 0 0
2 -14.3505 -4.6029250253 -3.9057151932 0.01 0.0 0.0 38.6817305917 0 0
2 -15.945 -1.8411700253 -3.9057151932 0.01 0.0 0.0 38.6817305917 0 0
2 -14.3505 -4.6029250253 -1.3019051932 0.01 0.0 0.0 38.6817305917 0 0
2 -15.945 -1.8411700253 -1.3019051932 0.01 0.0 0.0 38.6817305917 0 0
2 -15.945 -5.5235100253 -3.2547551932 0.01 0.0 0.0 38.6817305917 0 0
2 -15.945 -5.5235100253 -1.9528551932 0.01 0.0 0.0 38.6817305917 0 0
2 -14.3505 -2.7617500253 -3.2547551932 0.01 0.0 0.0 38.6817305917 0 0
2 -14.3505 -2.7617500253 -1.9528551932 0.01 0.0 0.0 38.6817305917 0 0
2 -15.945 -3.6823400253 -4.5566651932 0.01 0.0 0.0 38.6817305917 0 0
2 -15.945 -3.6823400253 -0.6509551932 0.01 0.0 0.0 38.6817305917 0 0
2 -14.3505 -0.9205900253 -4.5566651932 0.01 0.0 0.0 38.6817305917 0 0
2 -14.3505 -0.9205900253 -0.6509551932 0.01 0.0 0.0 38.6817305917 0 0
1 -15.945 -5.5235100253 0.0 0.01 1.0 0.0 38.6817305917 0 0
1 -15.945 -3.6823400253 2.60381 0.01 1.0 0.0 38.6817305917 0 0
1 -14.3505 -2.7617500253 0.0 0.01 1.0 0.0 38.6817305917 0 0
1 -14.3505 -0.9205800253 2.60381 0.01 1.0 0.0 38.6817305917 0 0
2 -14.3505 -4.6029250253 1.3019 0.01 0.0 0.0 38.6817305917 0 0
2 -15.945 -1.8411700253 1.3019 0.01 0.0 0.0 38.6817305917 0 0
2 -14.3505 -4.6029250253 3.90571 0.01 0.0 0.0 38.6817305917 0 0
2 -15.945 -1.8411700253 3.90571 0.01 0.0 0.0 38.6817305917 0 0
2 -15.945 -5.5235100253 1.95286 0.01 0.0 0.0 38.6817305917 0 0
2 -15.945 -5.5235100253 3.25476 0.01 0.0 0.0 38.6817305917 0 0
2 -14.3505 -2.7617500253 1.95286 0.01 0.0 0.0 38.6817305917 0 0
2 -14.3505 -2.7617500253 3.25476 0.01 0.0 0.0 38.6817305917 0 0
2 -15.945 -3.6823400253 0.65095 0.01 0.0 0.0 38.6817305917 0 0
2 -15.945 -3.6823400253 4.55666 0.01 0.0 0.0 38.6817305917 0 0
2 -14.3505 -0.9205900253 0.65095 0.01 0.0 0.0 38.6817305917 0 0
2 -14.3505 -0.9205900253 4.55666 0.01 0.0 0.0 38.6817305917 0 0
1 -15.945 -5.5235100253 5.2076151932 0.01 1.0 0.0 38.6817305917 0 0
1 -15.945 -3.6823400253 7.8114251932 0.01 1.0 0.0 38.6817305917 0 0
1 -14.3505 -2.7617500253 5.2076151932 0.01 1.0 0.0 38.6817305917 0 0
1 -14.3505 -0.9205800253 7.8114251932 0.01 1.0 0.0 38.6817305917 0 0
2 -14.3505 -4.6029250253 6.5095151932 0.01 0.0 0.0 38.6817305917 0 0
2 -15.945 -1.8411700253 6.5095151932 0.01 0.0 0.0 38.6817305917 0 0
2 -14.3505 -4.6029250253 9.1133251932 0.01 0.0 0.0 38.6817305917 0 0
2 -15.945 -1.8411700253 9.1133251932 0.01 0.0 0.0 38.6817305917 0 0
2 -15.945 -5.5235100253 7.1604751932 0.01 0.0 0.0 38.6817305917 0 0
2 -15.945 -5.5235100253 8.4623751932 0.01 0.0 0.0 38.6817305917 0 0
2 -14.3505 -2.7617500253 7.1604751932 0.01 0.0 0.0 38.6817305917 0 0
2 -14.3505 -2.7617500253 8.4623751932 0.01 0.0 0.0 38.6817305917 0 0
2 -15.945 -3.6823400253 5.8585651932 0.01 0.0 0.0 38.6817305917 0 0
2 -15.945 -3.6823400253 9.7642751932 0.01 0.0 0.0 38.6817305917 0 0
2 -14.3505 -0.9205900253 5.8585651932 0.01 0.0 0.0 38.6817305917 0 0
2 -14.3505 -0.9205900253 9.7642751932 0.01 0.0 0.0 38.6817305917 0 0
1 -15.945 -5.5235100253 10.4152303863 0.01 1.0 0.0 38.6817305917 0 0
1 -14.3505 -2.7617500253 10.4152303863 0.01 1.0 0.0 38.6817305917 0 0
1 -14.3505 -0.9205800253 13.0190403863 0.01 1.0 0.0 38.6817305917 0 0
2 -14.3505 -4.6029250253 11.7171303863 0.01 0.0 0.0 38.6817305917 0 0
2 -15.945 -1.8411700253 11.7171303863 0.01 0.0 0.0 38.6817305917 0 0
2 -14.3505 -2.7617500253 12.3680903863 0.01 0.0 0.0 38.6817305917 0 0
2 -15.945 -3.6823400253 11.0661803863 0.01 0.0 0.0 38.6817305917 0 0
2 -14.3505 -0.9205900253 11.0661803863 0.01 0.0 0.0 38.6817305917 0 0
1 -14.3505 4.60293 -13.0190355795 0.01 1.0 0.0 38.6817305917 0 0
2 -14.3505 0.920585 -11.7171355795 0.01 0.0 0.0 38.6817305917 0 0
2 -14.3505 2.76176 -12.3680855795 0.01 0.0 0.0 38.6817305917 0 0
2 -15.945 1.84117 -11.0661855795 0.01 0.0 0.0 38.6817305917 0 0
2 -14.3505 4.60292 -11.0661855795 0.01 0.0 0.0 38.6817305917 0 0
1 -15.945 0.0 -10.4152303863 0.01 1.0 0.0 38.6817305917 0 0
1 -15.945 1.84117 -7.8114203863 0.01 1.0 0.0 38.6817305917 0 0
1 -14.3505 2.76176 -10.4152303863 0.01 1.0 0.0 38.6817305917 0 0
1 -14.3505 4.60293 -7.8114203863 0.01 1.0 0.0 38.6817305917 0 0
2 -14.3505 0.920585 -9.1133303863 0.01 0.0 0.0 38.6817305917 0 0
2 -15.945 3.68234 -9.1133303863 0.01 0.0 0.0 38.6817305917 0 0
2 -14.3505 0.920585 -6.5095203863 0.01 0.0 0.0 38.6817305917 0 0
2 -15.945 3.68234 -6.5095203863 0.01 0.0 0.0 38.6817305917 0 0
2 -15.945 0.0 -8.4623703863 0.01 0.0 0.0 38.6817305917 0 0
2 -15.945 0.0 -7.1604703863 0.01 0.0 0.0 38.6817305917 0 0
2 -14.3505 2.76176 -8.4623703863 0.01 0.0 0.0 38.6817305917 0 0
2 -14.3505 2.76176 -7.1604703863 0.01 0.0 0.0 38.6817305917 0 0
2 -15.945 1.84117 -9.7642803863 0.01 0.0 0.0 38.6817305917 0 0
2 -15.945 1.84117 -5.8585703863 0.01 0.0 0.0 38.6817305917 0 0
2 -14.3505 4.60292 -9.7642803863 0.01 0.0 0.0 38.6817305917 0 0
2 -14.3505 4.60292 -5.8585703863 0.01 0.0 0.0 38.6817305917 0 0
1 -15.945 0.0 -5.2076151932 0.01 1.0 0.0 38.6817305917 0 0
1 -15.945 1.84117 -2.6038051932 0.01 1.0 0.0 38.6817305917 0 0
1 -14.3505 2.76176 -5.2076151932 0.01 1.0 0.0 38.6817305917 0 0
1 -14.3505 4.60293 -2.6038051932 0.01 1.0 0.0 38.6817305917 0 0
2 -14.3505 0.920585 -3.9057151932 0.01 0.0 0.0 38.6817305917 0 0
2 -15.945 3.68234 -3.9057151932 0.01 0.0 0.0 38.6817305917 0 0
2 -14.3505 0.920585 -1.3019051932 0.01 0.0 0.0 38.6817305917 0 0
2 -15.945 3.68234 -1.3019051932 0.01 0.0 0.0 38.6817305917 0 0
2 -15.945 0.0 -3.2547551932 0.01 0.0 0.0 38.6817305917 0 0
2 -15.945 0.0 -1.9528551932 0.01 0.0 0.0 38.6817305917 0 0
2 -14.3505 2.76176 -3.2547551932 0.01 0.0 0.0 38.6817305917 0 0
2 -14.3505 2.76176 -1.9528551932 0.01 0.0 0.0 38.6817305917 0 0
2 -15.945 1.84117 -4.5566651932 0.01 0.0 0.0 38.6817305917 0 0
2 -15.945 1.84117 -0.6509551932 0.01 0.0 0.0 38.6817305917 0 0
2 -14.3505 4.60292 -4.5566651932 0.01 0.0 0.0 38.6817305917 0 0
2 -14.3505 4.60292 -0.6509551932 0.01 0.0 0.0 38.6817305917 0 0
1 -15.945 0.0 0.0 0.01 1.0 0.0 38.6817305917 0 0
1 -15.945 1.84117 2.60381 0.01 1.0 0.0 38.6817305917 0 0
1 -14.3505 2.76176 0.0 0.01 1.0 0.0 38.6817305917 0 0
1 -14.3505 4.60293 2.60381 0.01 1.0 0.0 38.6817305917 0 0
2 -14.3505 0.920585 1.3019 0.01 0.0 0.0 38.6817305917 0 0
2 -15.945 3.68234 1.3019 0.01 0.0 0.0 38.6817305917 0 0
2 -14.3505 0.920585 3.90571 0.01 0.0 0.0 38.6817305917 0 0
2 -15.945 3.68234 3.90571 0.01 0.0 0.0 38.6817305917 0 0
2 -15.945 0.0 1.95286 0.01 0.0 0.0 38.6817305917 0 0
2 -15.945 0.0 3.25476 0.01 0.0 0.0 38.6817305917 0 0
2 -14.3505 2.76176 1.95286 0.01 0.0 0.0 38.6817305917 0 0
2 -14.3505 2.76176 3.25476 0.01 0.0 0.0 38.6817305917 0 0
2 -15.945 1.84117 0.65095 0.01 0.0 0.0 38.6817305917 0 0
2 -15.945 1.84117 4.55666 0.01 0.0 0.0 38.6817305917 0 0
2 -14.3505 4.60292 0.65095 0.01 0.0 0.0 38.6817305917 0 0
2 -14.3505 4.60292 4.55666 0.01 0.0 0.0 38.6817305917 0 0
1 -15.945 0.0 5.2076151932 0.01 1.0 0.0 38.6817305917 0 0
1 -15.945 1.84117 7.8114251932 0.01 1.0 0.0 38.6817305917 0 0
1 -14.3505 2.76176 5.2076151932 0.01 1.0 0.0 38.6817305917 0 0
1 -14.3505 4.60293 7.8114251932 0.01 1.0 0.0 38.6817305917 0 0
2 -14.3505 0.920585 6.5095151932 0.01 0.0 0.0 38.6817305917 0 0
2 -15.945 3.68234 6.5095151932 0.01 0.0 0.0 38.6817305917 0 0
2 -14.3505 0.920585 9.1133251932 0.01 0.0 0.0 38.6817305917 0 0
2 -15.945 3.68234 9.1133251932 0.01 0.0 0.0 38.6817305917 0 0
2 -15.945 0.0 7.1604751932 0.01 0.0 0.0 38.6817305917 0 0
2 -15.945 0.0 8.4623751932 0.01 0.0 0.0 38.6817305917 0 0
2 -14.3505 2.76176 7.1604751932 0.01 0.0 0.0 38.6817305917 0 0
2 -14.3505 2.76176 8.4623751932 0.01 0.0 0.0 38.6817305917 0 0
2 -15.945 1.84117 5.8585651932 0.01 0.0 0.0 38.6817305917 0 0
2 -15.945 1.84117 9.7642751932 0.01 0.0 0.0 38.6817305917 0 0
2 -14.3505 4.60292 5.8585651932 0.01 0.0 0.0 38.6817305917 0 0
2 -14.3505 4.60292 9.7642751932 0.01 0.0 0.0 38.6817305917 0 0
1 -15.945 0.0 10.4152303863 0.01 1.0 0.0 38.6817305917 0 0
1 -14.3505 2.76176 10.4152303863 0.01 1.0 0.0 38.6817305917 0 0
1 -14.3505 4.60293 13.0190403863 0.01 1.0 0.0 38.6817305917 0 0
2 -14.3505 0.920585 11.7171303863 0.01 0.0 0.0 38.6817305917 0 0
2 -14.3505 2.76176 12.3680903863 0.01 0.0 0.0 38.6817305917 0 0
2 -15.945 1.84117 11.0661803863 0.01 0.0 0.0 38.6817305917 0 0
2 -14.3505 4.60292 11.0661803863 0.01 0.0 0.0 38.6817305917 0 0
2 -14.3505 6.4440950253 -11.7171355795 0.01 0.0 0.0 38.6817305917 0 0
1 -15.945 5.5235100253 -10.4152303863 0.01 1.0 0.0 38.6817305917 0 0
1 -15.945 7.3646800253 -7.8114203863 0.01 1.0 0.0 38.6817305917 0 0
1 -14.3505 8.2852700253 -10.4152303863 0.01 1.0 0.0 38.6817305917 0 0
1 -14.3505 10.1264400253 -7.8114203863 0.01 1.0 0.0 38.6817305917 0 0
2 -14.3505 6.4440950253 -9.1133303863 0.01 0.0 0.0 38.6817305917 0 0
2 -14.3505 6.4440950253 -6.5095203863 0.01 0.0 0.0 38.6817305917 0 0
2 -15.945 9.2058500253 -6.5095203863 0.01 0.0 0.0 38.6817305917 0 0
2 -15.945 5.5235100253 -8.4623703863 0.01 0.0 0.0 38.6817305917 0 0
2 -15.945 5.5235100253 -7.1604703863 0.01 0.0 0.0 38.6817305917 0 0
2 -14.3505 8.2852700253 -8.4623703863 0.01 0.0 0.0 38.6817305917 0 0
2 -14.3505 8.2852700253 -7.1604703863 0.01 0.0 0.0 38.6817305917 0 0
2 -15.945 7.3646800253 -5.8585703863 0.01 0.0 0.0 38.6817305917 0 0
2 -14.3505 10.1264300253 -5.8585703863 0.01 0.0 0.0 38.6817305917 0 0
1 -15.945 5.5235100253 -5.2076151932 0.01 1.0 0.0 38.6817305917 0 0
1 -15.945 7.3646800253 -2.6038051932 0.01 1.0 0.0 38.6817305917 0 0
1 -14.3505 8.2852700253 -5.2076151932 0.01 1.0 0.0 38.6817305917 0 0
1 -14.3505 10.1264400253 -2.6038051932 0.01 1.0 0.0 38.6817305917 0 0
2 -14.3505 6.4440950253 -3.9057151932 0.01 0.0 0.0 38.6817305917 0 0
2 -15.945 9.2058500253 -3.9057151932 0.01 0.0 0.0 38.6817305917 0 0
2 -14.3505 6.4440950253 -1.3019051932 0.01 0.0 0.0 38.6817305917 0 0
2 -15.945 9.2058500253 -1.3019051932 0.01 0.0 0.0 38.6817305917 0 0
2 -15.945 5.5235100253 -3.2547551932 0.01 0.0 0.0 38.6817305917 0 0
2 -15.945 5.5235100253 -1.9528551932 0.01 0.0 0.0 38.6817305917 0 0
2 -14.3505 8.2852700253 -3.2547551932 0.01 0.0 0.0 38.6817305917 0 0
2 -14.3505 8.2852700253 -1.9528551932 0.01 0.0 0.0 38.6817305917 0 0
2 -15.945 7.3646800253 -4.5566651932 0.01 0.0 0.0 38.6817305917 0 0
2 -15.945 7.3646800253 -0.6509551932 0.01 0.0 0.0 38.6817305917 0 0
2 -14.3505 10.1264300253 -4.5566651932 0.01 0.0 0.0 38.6817305917 0 0
2 -14.3505 10.1264300253 -0.6509551932 0.01 0.0 0.0 38.6817305917 0 0
1 -15.945 5.5235100253 0.0 0.01 1.0 0.0 38.6817305917 0 0
1 -15.945 7.3646800253 2.60381 0.01 1.0 0.0 38.6817305917 0 0
1 -14.3505 8.2852700253 0.0 0.01 1.0 0.0 38.6817305917 0 0
1 -14.3505 10.1264400253 2.60381 0.01 1.0 0.0 38.6817305917 0 0
2 -14.3505 6.4440950253 1.3019 0.01 0.0 0.0 38.6817305917 0 0
2 -15.945 9.2058500253 1.3019 0.01 0.0 0.0 38.6817305917 0 0
2 -14.3505 6.4440950253 3.90571 0.01 0.0 0.0 38.6817305917 0 0
2 -15.945 9.2058500253 3.90571 0.01 0.0 0.0 38.6817305917 0 0
2 -15.945 5.5235100253 1.95286 0.01 0.0 0.0 38.6817305917 0 0
2 -15.945 5.5235100253 3.25476 0.01 0.0 0.0 38.6817305917 0 0
2 -14.3505 8.2852700253 1.95286 0.01 0.0 0.0 38.6817305917 0 0
2 -14.3505 8.2852700253 3.25476 0.01 0.0 0.0 38.6817305917 0 0
2 -15.945 7.3646800253 0.65095 0.01 0.0 0.0 38.6817305917 0 0
2 -15.945 7.3646800253 4.55666 0.01 0.0 0.0 38.6817305917 0 0
2 -14.3505 10.1264300253 0.65095 0.01 0.0 0.0 38.6817305917 0 0
2 -14.3505 10.1264300253 4.55666 0.01 0.0 0.0 38.6817305917 0 0
1 -15.945 5.5235100253 5.2076151932 0.01 1.0 0.0 38.6817305917 0 0
1 -15.945 7.3646800253 7.8114251932 0.01 1.0 0.0 38.6817305917 0 0
1 -14.3505 8.2852700253 5.2076151932 0.01 1.0 0.0 38.6817305917 0 0
1 -14.3505 10.1264400253 7.8114251932 0.01 1.0 0.0 38.6817305917 0 0
2 -14.3505 6.4440950253 6.5095151932 0.01 0.0 0.0 38.6817305917 0 0
2 -15.945 9.2058500253 6.5095151932 0.01 0.0 0.0 38.6817305917 0 0
2 -14.3505 6.4440950253 9.1133251932 0.01 0.0 0.0 38.6817305917 0 0
2 -15.945 5.5235100253 7.1604751932 0.01 0.0 0.0 38.6817305917 0 0
2 -15.945 5.5235100253 8.4623751932 0.01 0.0 0.0 38.6817305917 0 0
2 -14.3505 8.2852700253 7.1604751932 0.01 0.0 0.0 38.6817305917 0 0
2 -14.3505 8.2852700253 8.4623751932 0.01 0.0 0.0 38.6817305917 0 0
2 -15.945 7.3646800253 5.8585651932 0.01 0.0 0.0 38.6817305917 0 0
2 -14.3505 10.1264300253 5.8585651932 0.01 0.0 0.0 38.6817305917 0 0
1 -15.945 5.5235100253 10.4152303863 0.01 1.0 0.0 38.6817305917 0 0
1 -14.3505 8.2852700253 10.4152303863 0.01 1.0 0.0 38.6817305917 0 0
2 -14.3505 6.4440950253 11.7171303863 0.01 0.0 0.0 38.6817305917 0 0
2 -14.3505 11.9676050507 -6.5095203863 0.01 0.0 0.0 38.6817305917 0 0
2 -14.3505 11.9676050507 -3.9057151932 0.01 0.0 0.0 38.6817305917 0 0
2 -14.3505 11.9676050507 -1.3019051932 0.01 0.0 0.0 38.6817305917 0 0
2 -15.945 11.0470200507 -3.2547551932 0.01 0.0 0.0 38.6817305917 0 0
2 -15.945 11.0470200507 -1.9528551932 0.01 0.0 0.0 38.6817305917 0 0
1 -15.945 11.0470200507 0.0 0.01 1.0 0.0 38.6817305917 0 0
1 -14.3505 13.8087800507 0.0 0.01 1.0 0.0 38.6817305917 0 0
2 -14.3505 11.9676050507 1.3019 0.01 0.0 0.0 38.6817305917 0 0
2 -14.3505 11.9676050507 3.90571 0.01 0.0 0.0 38.6817305917 0 0
2 -15.945 11.0470200507 1.95286 0.01 0.0 0.0 38.6817305917 0 0
2 -15.945 11.0470200507 3.25476 0.01 0.0 0.0 38.6817305917 0 0
2 -14.3505 11.9676050507 6.5095151932 0.01 0.0 0.0 38.6817305917 0 0
2 -11.1615 -11.967610076 -11.0661855795 0.01 0.0 0.0 38.6817305917 0 0
1 -11.1615 -11.967600076 -7.8114203863 0.01 1.0 0.0 38.6817305917 0 0
2 -12.756 -12.888190076 -6.5095203863 0.01 0.0 0.0 38.6817305917 0 0
2 -11.1615 -13.808770076 -8.4623703863 0.01 0.0 0.0 38.6817305917 0 0
2 -11.1615 -13.808770076 -7.1604703863 0.01 0.0 0.0 38.6817305917 0 0
2 -11.1615 -11.967610076 -9.7642803863 0.01 0.0 0.0 38.6817305917 0 0
2 -11.1615 -11.967610076 -5.8585703863 0.01 0.0 0.0 38.6817305917 0 0
1 -12.756 -14.729360076 -2.6038051932 0.01 1.0 0.0 38.6817305917 0 0
1 -11.1615 -13.808770076 -5.2076151932 0.01 1.0 0.0 38.6817305917 0 0
1 -11.1615 -11.967600076 -2.6038051932 0.01 1.0 0.0 38.6817305917 0 0
2 -11.1615 -15.649945076 -3.9057151932 0.01 0.0 0.0 38.6817305917 0 0
2 -12.756 -12.888190076 -3.9057151932 0.01 0.0 0.0 38.6817305917 0 0
2 -11.1615 -15.649945076 -1.3019051932 0.01 0.0 0.0 38.6817305917 0 0
2 -12.756 -12.888190076 -1.3019051932 0.01 0.0 0.0 38.6817305917 0 0
2 -11.1615 -13.808770076 -3.2547551932 0.01 0.0 0.0 38.6817305917 0 0
2 -11.1615 -13.808770076 -1.9528551932 0.01 0.0 0.0 38.6817305917 0 0
2 -12.756 -14.729360076 -0.6509551932 0.01 0.0 0.0 38.6817305917 0 0
2 -11.1615 -11.967610076 -4.5566651932 0.01 0.0 0.0 38.6817305917 0 0
2 -11.1615 -11.967610076 -0.6509551932 0.01 0.0 0.0 38.6817305917 0 0
1 -12.756 -14.729360076 2.60381 0.01 1.0 0.0 38.6817305917 0 0
1 -11.1615 -13.808770076 0.0 0.01 1.0 0.0 38.6817305917 0 0
1 -11.1615 -11.967600076 2.60381 0.01 1.0 0.0 38.6817305917 0 0
2 -11.1615 -15.649945076 1.3019 0.01 0.0 0.0 38.6817305917 0 0
2 -12.756 -12.888190076 1.3019 0.01 0.0 0.0 38.6817305917 0 0
2 -11.1615 -15.649945076 3.90571 0.01 0.0 0.0 38.6817305917 0 0
2 -12.756 -12.888190076 3.90571 0.01 0.0 0.0 38.6817305917 0 0
2 -11.1615 -13.808770076 1.95286 0.01 0.0 0.0 38.6817305917 0 0
2 -11.1615 -13.808770076 3.25476 0.01 0.0 0.0 38.6817305917 0 0
2 -12.756 -14.729360076 0.65095 0.01 0.0 0.0 38.6817305917 0 0
2 -11.1615 -11.967610076 0.65095 0.01 0.0 0.0 38.6817305917 0 0
2 -11.1615 -11.967610076 4.55666 0.01 0.0 0.0 38.6817305917 0 0
1 -11.1615 -13.808770076 5.2076151932 0.01 1.0 0.0 38.6817305917 0 0
1 -11.1615 -11.967600076 7.8114251932 0.01 1.0 0.0 38.6817305917 0 0
2 -12.756 -12.888190076 6.5095151932 0.01 0.0 0.0 38.6817305917 0 0
2 -11.1615 -13.808770076 7.1604751932 0.01 0.0 0.0 38.6817305917 0 0
2 -11.1615 -13.808770076 8.4623751932 0.01 0.0 0.0 38.6817305917 0 0
2 -11.1615 -11.967610076 5.8585651932 0.01 0.0 0.0 38.6817305917 0 0
2 -11.1615 -11.967610076 9.7642751932 0.01 0.0 0.0 38.6817305917 0 0
2 -11.1615 -11.967610076 11.0661803863 0.01 0.0 0.0 38.6817305917 0 0
1 -11.1615 -6.4440900507 -13.0190355795 0.01 1.0 0.0 38.6817305917 0 0
2 -11.1615 -10.1264350507 -11.7171355795 0.01 0.0 0.0 38.6817305917 0 0
2 -12.756 -7.3646800507 -11.7171355795 0.01 0.0 0.0 38.6817305917 0 0
2 -11.1615 -8.2852600507 -13.6699855795 0.01 0.0 0.0 38.6817305917 0 0
2 -11.1615 -8.2852600507 -12.3680855795 0.01 0.0 0.0 38.6817305917 0 0
2 -12.756 -9.2058500507 -11.0661855795 0.01 0.0 0.0 38.6817305917 0 0
2 -11.1615 -6.4441000507 -14.9718955795 0.01 0.0 0.0 38.6817305917 0 0
2 -11.1615 -6.4441000507 -11.0661855795 0.01 0.0 0.0 38.6817305917 0 0
1 -12.756 -11.0470200507 -10.4152303863 0.01 1.0 0.0 38.6817305917 0 0
1 -12.756 -9.2058500507 -7.8114203863 0.01 1.0 0.0 38.6817305917 0 0
1 -11.1615 -8.2852600507 -10.4152303863 0.01 1.0 0.0 38.6817305917 0 0
1 -11.1615 -6.4440900507 -7.8114203863 0.01 1.0 0.0 38.6817305917 0 0
2 -11.1615 -10.1264350507 -9.1133303863 0.01 0.0 0.0 38.6817305917 0 0