ITEM: TIMESTEP
0
ITEM: NUMBER OF ATOMS
4701
ITEM: BOX BOUNDS pp pp pp
-3.189 6.378
-77.3291403547 88.3761604054
-72.9066127042 83.3218430905
ITEM: ATOMS type x y z Stdvq Molarfraction chemicalmultp thermalmultp chemicalmultpbcc thermalmultpbcc
1 -1.5945 -28.538130152 -7.8114203863 0.01 1.0 0.0 38.6817305917 0 0
2 -1.5945 -28.538140152 -5.8585703863 0.01 1.0e-04 0.0 38.6817305917 0 0
1 -1.5945 -28.538130152 -2.6038051932 0.01 1.0 0.0 38.6817305917 0 0
2 -3.189 -29.458720152 -3.9057151932 0.01 1.0e-04 0.0 38.6817305917 0 0
2 -3.189 -29.458720152 -1.3019051932 0.01 1.0e-04 0.0 38.6817305917 0 0
2 -1.5945 -28.538140152 -4.5566651932 0.01 1.0e-04 0.0 38.6817305917 0 0
2 -1.5945 -28.538140152 -0.6509551932 0.01 1.0e-04 0.0 38.6817305917 0 0
1 -1.5945 -28.538130152 2.60381 0.01 1.0 0.0 38.6817305917 0 0
2 -3.189 -29.458720152 1.3019 0.01 1.0e-04 0.0 38.6817305917 0 0
2 -3.189 -29.458720152 3.90571 0.01 1.0e-04 0.0 38.6817305917 0 0
2 -1.5945 -28.538140152 0.65095 0.01 1.0e-04 0.0 38.6817305917 0 0
2 -1.5945 -28.538140152 4.55666 0.01 1.0e-04 0.0 38.6817305917 0 0
1 -1.5945 -28.538130152 7.8114251932 0.01 1.0 0.0 38.6817305917 0 0
2 -1.5945 -28.538140152 5.8585651932 0.01 1.0e-04 0.0 38.6817305917 0 0
1 -1.5945 -23.0146201267 -18.2266507726 0.01 1.0 0.0 38.6817305917 0 0
2 -3.189 -23.9352101267 -16.9247507726 0.01 1.0e-04 0.0 38.6817305917 0 0
2 -1.5945 -23.0146301267 -16.2738007726 0.01 1.0e-04 0.0 38.6817305917 0 0
1 -3.189 -25.7763801267 -13.0190355795 0.01 1.0 0.0 38.6817305917 0 0
1 -1.5945 -24.8557901267 -15.6228455795 0.01 1.0 0.0 38.6817305917 0 0
1 -1.5945 -23.0146201267 -13.0190355795 0.01 1.0 0.0 38.6817305917 0 0
2 -3.189 -23.9352101267 -14.3209455795 0.01 1.0e-04 0.0 38.6817305917 0 0
2 -1.5945 -26.6969651267 -11.7171355795 0.01 1.0e-04 0.0 38.6817305917 0 0
2 -3.189 -23.9352101267 -11.7171355795 0.01 1.0e-04 0.0 38.6817305917 0 0
2 -1.5945 -24.8557901267 -13.6699855795 0.01 1.0e-04 0.0 38.6817305917 0 0
2 -1.5945 -24.8557901267 -12.3680855795 0.01 1.0e-04 0.0 38.6817305917 0 0
2 -3.189 -25.7763801267 -14.9718955795 0.01 1.0e-04 0.0 38.6817305917 0 0
2 -3.189 -25.7763801267 -11.0661855795 0.01 1.0e-04 0.0 38.6817305917 0 0
2 -1.5945 -23.0146301267 -14.9718955795 0.01 1.0e-04 0.0 38.6817305917 0 0
2 -1.5945 -23.0146301267 -11.0661855795 0.01 1.0e-04 0.0 38.6817305917 0 0
1 -3.189 -27.6175501267 -10.4152303863 0.01 1.0 0.0 38.6817305917 0 0
1 -3.189 -25.7763801267 -7.8114203863 0.01 1.0 0.0 38.6817305917 0 0
1 -1.5945 -24.8557901267 -10.4152303863 0.01 1.0 0.0 38.6817305917 0 0
1 -1.5945 -23.0146201267 -7.8114203863 0.01 1.0 0.0 38.6817305917 0 0
2 -1.5945 -26.6969651267 -9.1133303863 0.01 1.0e-04 0.0 38.6817305917 0 0
2 -3.189 -23.9352101267 -9.1133303863 0.01 1.0e-04 0.0 38.6817305917 0 0
2 -1.5945 -26.6969651267 -6.5095203863 0.01 1.0e-04 0.0 38.6817305917 0 0
2 -3.189 -23.9352101267 -6.5095203863 0.01 1.0e-04 0.0 38.6817305917 0 0
2 -3.189 -27.6175501267 -8.4623703863 0.01 1.0e-04 0.0 38.6817305917 0 0
2 -3.189 -27.6175501267 -7.1604703863 0.01 1.0e-04 0.0 38.6817305917 0 0
2 -1.5945 -24.8557901267 -8.4623703863 0.01 1.0e-04 0.0 38.6817305917 0 0
2 -1.5945 -24.8557901267 -7.1604703863 0.01 1.0e-04 0.0 38.6817305917 0 0
2 -3.189 -25.7763801267 -9.7642803863 0.01 1.0e-04 0.0 38.6817305917 0 0
2 -3.189 -25.7763801267 -5.8585703863 0.01 1.0e-04 0.0 38.6817305917 0 0
2 -1.5945 -23.0146301267 -9.7642803863 0.01 1.0e-04 0.0 38.6817305917 0 0
2 -1.5945 -23.0146301267 -5.8585703863 0.01 1.0e-04 0.0 38.6817305917 0 0
1 -3.189 -27.6175501267 -5.2076151932 0.01 1.0 0.0 38.6817305917 0 0
1 -3.189 -25.7763801267 -2.6038051932 0.01 1.0 0.0 38.6817305917 0 0
1 -1.5945 -24.8557901267 -5.2076151932 0.01 1.0 0.0 38.6817305917 0 0
1 -1.5945 -23.0146201267 -2.6038051932 0.01 1.0 0.0 38.6817305917 0 0
2 -1.5945 -26.6969651267 -3.9057151932 0.01 1.0e-04 0.0 38.6817305917 0 0
2 -3.189 -23.9352101267 -3.9057151932 0.01 1.0e-04 0.0 38.6817305917 0 0
2 -1.5945 -26.6969651267 -1.3019051932 0.01 1.0e-04 0.0 38.6817305917 0 0
2 -3.189 -23.9352101267 -1.3019051932 0.01 1.0e-04 0.0 38.6817305917 0 0
2 -3.189 -27.6175501267 -3.2547551932 0.01 1.0e-04 0.0 38.6817305917 0 0
2 -3.189 -27.6175501267 -1.9528551932 0.01 1.0e-04 0.0 38.6817305917 0 0
2 -1.5945 -24.8557901267 -3.2547551932 0.01 1.0e-04 0.0 38.6817305917 0 0
2 -1.5945 -24.8557901267 -1.9528551932 0.01 1.0e-04 0.0 38.6817305917 0 0
2 -3.189 -25.7763801267 -4.5566651932 0.01 1.0e-04 0.0 38.6817305917 0 0
2 -3.189 -25.7763801267 -0.6509551932 0.01 1.0e-04 0.0 38.6817305917 0 0
2 -1.5945 -23.0146301267 -4.5566651932 0.01 1.0e-04 0.0 38.6817305917 0 0
2 -1.5945 -23.0146301267 -0.6509551932 0.01 1.0e-04 0.0 38.6817305917 0 0
1 -3.189 -27.6175501267 0.0 0.01 1.0 0.0 38.6817305917 0 0
1 -3.189 -25.7763801267 2.60381 0.01 1.0 0.0 38.6817305917 0 0
1 -1.5945 -24.8557901267 0.0 0.01 1.0 0.0 38.6817305917 0 0
1 -1.5945 -23.0146201267 2.60381 0.01 1.0 0.0 38.6817305917 0 0
2 -1.5945 -26.6969651267 1.3019 0.01 1.0e-04 0.0 38.6817305917 0 0
2 -3.189 -23.9352101267 1.3019 0.01 1.0e-04 0.0 38.6817305917 0 0
2 -1.5945 -26.6969651267 3.90571 0.01 1.0e-04 0.0 38.6817305917 0 0
2 -3.189 -23.9352101267 3.90571 0.01 1.0e-04 0.0 38.6817305917 0 0
2 -3.189 -27.6175501267 1.95286 0.01 1.0e-04 0.0 38.6817305917 0 0
2 -3.189 -27.6175501267 3.25476 0.01 1.0e-04 0.0 38.6817305917 0 0
2 -1.5945 -24.8557901267 1.95286 0.01 1.0e-04 0.0 38.6817305917 0 0
2 -1.5945 -24.8557901267 3.25476 0.01 1.0e-04 0.0 38.6817305917 0 0
2 -3.189 -25.7763801267 0.65095 0.01 1.0e-04 0.0 38.6817305917 0 0
2 -3.189 -25.7763801267 4.55666 0.01 1.0e-04 0.0 38.6817305917 0 0
2 -1.5945 -23.0146301267 0.65095 0.01 1.0e-04 0.0 38.6817305917 0 0
2 -1.5945 -23.0146301267 4.55666 0.01 1.0e-04 0.0 38.6817305917 0 0
1 -3.189 -27.6175501267 5.2076151932 0.01 1.0 0.0 38.6817305917 0 0
1 -3.189 -25.7763801267 7.8114251932 0.01 1.0 0.0 38.6817305917 0 0
1 -1.5945 -24.8557901267 5.2076151932 0.01 1.0 0.0 38.6817305917 0 0
1 -1.5945 -23.0146201267 7.8114251932 0.01 1.0 0.0 38.6817305917 0 0
2 -1.5945 -26.6969651267 6.5095151932 0.01 1.0e-04 0.0 38.6817305917 0 0
2 -3.189 -23.9352101267 6.5095151932 0.01 1.0e-04 0.0 38.6817305917 0 0
2 -1.5945 -26.6969651267 9.1133251932 0.01 1.0e-04 0.0 38.6817305917 0 0
2 -3.189 -23.9352101267 9.1133251932 0.01 1.0e-04 0.0 38.6817305917 0 0
2 -3.189 -27.6175501267 7.1604751932 0.01 1.0e-04 0.0 38.6817305917 0 0
2 -3.189 -27.6175501267 8.4623751932 0.01 1.0e-04 0.0 38.6817305917 0 0
2 -1.5945 -24.8557901267 7.1604751932 0.01 1.0e-04 0.0 38.6817305917 0 0
2 -1.5945 -24.8557901267 8.4623751932 0.01 1.0e-04 0.0 38.6817305917 0 0
2 -3.189 -25.7763801267 5.8585651932 0.01 1.0e-04 0.0 38.6817305917 0 0
2 -3.189 -25.7763801267 9.7642751932 0.01 1.0e-04 0.0 38.6817305917 0 0
2 -1.5945 -23.0146301267 5.8585651932 0.01 1.0e-04 0.0 38.6817305917 0 0
2 -1.5945 -23.0146301267 9.7642751932 0.01 1.0e-04 0.0 38.6817305917 0 0
1 -3.189 -27.6175501267 10.4152303863 0.01 1.0 0.0 38.6817305917 0 0
1 -3.189 -25.7763801267 13.0190403863 0.01 1.0 0.0 38.6817305917 0 0
1 -1.5945 -24.8557901267 10.4152303863 0.01 1.0 0.0 38.6817305917 0 0
1 -1.5945 -23.0146201267 13.0190403863 0.01 1.0 0.0 38.6817305917 0 0
2 -1.5945 -26.6969651267 11.7171303863 0.01 1.0e-04 0.0 38.6817305917 0 0
2 -3.189 -23.9352101267 11.7171303863 0.01 1.0e-04 0.0 38.6817305917 0 0
2 -3.189 -23.9352101267 14.3209403863 0.01 1.0e-04 0.0 38.6817305917 0 0
2 -1.5945 -24.8557901267 12.3680903863 0.01 1.0e-04 0.0 38.6817305917 0 0
2 -1.5945 -24.8557901267 13.6699903863 0.01 1.0e-04 0.0 38.6817305917 0 0
2 -3.189 -25.7763801267 11.0661803863 0.01 1.0e-04 0.0 38.6817305917 0 0
2 -3.189 -25.7763801267 14.9718903863 0.01 1.0e-04 0.0 38.6817305917 0 0
2 -1.5945 -23.0146301267 11.0661803863 0.01 1.0e-04 0.0 38.6817305917 0 0
2 -1.5945 -23.0146301267 14.9718903863 0.01 1.0e-04 0.0 38.6817305917 0 0
1 -1.5945 -24.8557901267 15.6228455795 0.01 1.0 0.0 38.6817305917 0 0
1 -1.5945 -23.0146201267 18.2266555795 0.01 1.0 0.0 38.6817305917 0 0
2 -3.189 -23.9352101267 16.9247455795 0.01 1.0e-04 0.0 38.6817305917 0 0
2 -1.5945 -23.0146301267 16.2737955795 0.01 1.0e-04 0.0 38.6817305917 0 0
1 -1.5945 -17.4911101013 -23.4342659658 0.01 1.0 0.0 38.6817305917 0 0
2 -3.189 -18.4117001013 -22.1323659658 0.01 1.0e-04 0.0 38.6817305917 0 0
2 -1.5945 -19.3322801013 -22.7833159658 0.01 1.0e-04 0.0 38.6817305917 0 0
2 -3.189 -20.2528701013 -21.4814159658 0.01 1.0e-04 0.0 38.6817305917 0 0
2 -1.5945 -17.4911201013 -21.4814159658 0.01 1.0e-04 0.0 38.6817305917 0 0
1 -3.189 -20.2528701013 -18.2266507726 0.01 1.0 0.0 38.6817305917 0 0
1 -1.5945 -19.3322801013 -20.8304607726 0.01 1.0 0.0 38.6817305917 0 0
1 -1.5945 -17.4911101013 -18.2266507726 0.01 1.0 0.0 38.6817305917 0 0
2 -1.5945 -21.1734551013 -19.5285607726 0.01 1.0e-04 0.0 38.6817305917 0 0
2 -3.189 -18.4117001013 -19.5285607726 0.01 1.0e-04 0.0 38.6817305917 0 0
2 -1.5945 -21.1734551013 -16.9247507726 0.01 1.0e-04 0.0 38.6817305917 0 0
2 -3.189 -18.4117001013 -16.9247507726 0.01 1.0e-04 0.0 38.6817305917 0 0
2 -3.189 -22.0940401013 -18.8776007726 0.01 1.0e-04 0.0 38.6817305917 0 0
2 -3.189 -22.0940401013 -17.5757007726 0.01 1.0e-04 0.0 38.6817305917 0 0
2 -1.5945 -19.3322801013 -18.8776007726 0.01 1.0e-04 0.0 38.6817305917 0 0
2 -1.5945 -19.3322801013 -17.5757007726 0.01 1.0e-04 0.0 38.6817305917 0 0
2 -3.189 -20.2528701013 -20.1795107726 0.01 1.0e-04 0.0 38.6817305917 0 0
2 -3.189 -20.2528701013 -16.2738007726 0.01 1.0e-04 0.0 38.6817305917 0 0
2 -1.5945 -17.4911201013 -20.1795107726 0.01 1.0e-04 0.0 38.6817305917 0 0
2 -1.5945 -17.4911201013 -16.2738007726 0.01 1.0e-04 0.0 38.6817305917 0 0
1 -3.189 -22.0940401013 -15.6228455795 0.01 1.0 0.0 38.6817305917 0 0
1 -3.189 -20.2528701013 -13.0190355795 0.01 1.0 0.0 38.6817305917 0 0
1 -1.5945 -19.3322801013 -15.6228455795 0.01 1.0 0.0 38.6817305917 0 0
1 -1.5945 -17.4911101013 -13.0190355795 0.01 1.0 0.0 38.6817305917 0 0
2 -1.5945 -21.1734551013 -14.3209455795 0.01 1.0e-04 0.0 38.6817305917 0 0
2 -3.189 -18.4117001013 -14.3209455795 0.01 1.0e-04 0.0 38.6817305917 0 0
2 -1.5945 -21.1734551013 -11.7171355795 0.01 1.0e-04 0.0 38.6817305917 0 0
2 -3.189 -18.4117001013 -11.7171355795 0.01 1.0e-04 0.0 38.6817305917 0 0
2 -3.189 -22.0940401013 -13.6699855795 0.01 1.0e-04 0.0 38.6817305917 0 0
2 -3.189 -22.0940401013 -12.3680855795 0.01 1.0e-04 0.0 38.6817305917 0 0
2 -1.5945 -19.3322801013 -13.6699855795 0.01 1.0e-04 0.0 38.6817305917 0 0
2 -1.5945 -19.3322801013 -12.3680855795 0.01 1.0e-04 0.0 38.6817305917 0 0
2 -3.189 -20.2528701013 -14.9718955795 0.01 1.0e-04 0.0 38.6817305917 0 0
2 -3.189 -20.2528701013 -11.0661855795 0.01 1.0e-04 0.0 38.6817305917 0 0
2 -1.5945 -17.4911201013 -14.9718955795 0.01 1.0e-04 0.0 38.6817305917 0 0
2 -1.5945 -17.4911201013 -11.0661855795 0.01 1.0e-04 0.0 38.6817305917 0 0
1 -3.189 -22.0940401013 -10.4152303863 0.01 1.0 0.0 38.6817305917 0 0
1 -3.189 -20.2528701013 -7.8114203863 0.01 1.0 0.0 38.6817305917 0 0
1 -1.5945 -19.3322801013 -10.4152303863 0.01 1.0 0.0 38.6817305917 0 0
1 -1.5945 -17.4911101013 -7.8114203863 0.01 1.0 0.0 38.6817305917 0 0
2 -1.5945 -21.1734551013 -9.1133303863 0.01 1.0e-04 0.0 38.6817305917 0 0
2 -3.189 -18.4117001013 -9.1133303863 0.01 1.0e-04 0.0 38.6817305917 0 0
2 -1.5945 -21.1734551013 -6.5095203863 0.01 1.0e-04 0.0 38.6817305917 0 0
2 -3.189 -18.4117001013 -6.5095203863 0.01 1.0e-04 0.0 38.6817305917 0 0
2 -3.189 -22.0940401013 -8.4623703863 0.01 1.0e-04 0.0 38.6817305917 0 0
2 -3.189 -22.0940401013 -7.1604703863 0.01 1.0e-04 0.0 38.6817305917 0 0
2 -1.5945 -19.3322801013 -8.4623703863 0.01 1.0e-04 0.0 38.6817305917 0 0
2 -1.5945 -19.3322801013 -7.1604703863 0.01 1.0e-04 0.0 38.6817305917 0 0
2 -3.189 -20.2528701013 -9.7642803863 0.01 1.0e-04 0.0 38.6817305917 0 0
2 -3.189 -20.2528701013 -5.8585703863 0.01 1.0e-04 0.0 38.6817305917 0 0
2 -1.5945 -17.4911201013 -9.7642803863 0.01 1.0e-04 0.0 38.6817305917 0 0
2 -1.5945 -17.4911201013 -5.8585703863 0.01 1.0e-04 0.0 38.6817305917 0 0
1 -3.189 -22.0940401013 -5.2076151932 0.01 1.0 0.0 38.6817305917 0 0
1 -3.189 -20.2528701013 -2.6038051932 0.01 1.0 0.0 38.6817305917 0 0
1 -1.5945 -19.3322801013 -5.2076151932 0.01 1.0 0.0 38.6817305917 0 0
1 -1.5945 -17.4911101013 -2.6038051932 0.01 1.0 0.0 38.6817305917 0 0
2 -1.5945 -21.1734551013 -3.9057151932 0.01 1.0e-04 0.0 38.6817305917 0 0
2 -3.189 -18.4117001013 -3.9057151932 0.01 1.0e-04 0.0 38.6817305917 0 0
2 -1.5945 -21.1734551013 -1.3019051932 0.01 1.0e-04 0.0 38.6817305917 0 0
2 -3.189 -18.4117001013 -1.3019051932 0.01 1.0e-04 0.0 38.6817305917 0 0
2 -3.189 -22.0940401013 -3.2547551932 0.01 1.0e-04 0.0 38.6817305917 0 0
2 -3.189 -22.0940401013 -1.9528551932 0.01 1.0e-04 0.0 38.6817305917 0 0
2 -1.5945 -19.3322801013 -3.2547551932 0.01 1.0e-04 0.0 38.6817305917 0 0
2 -1.5945 -19.3322801013 -1.9528551932 0.01 1.0e-04 0.0 38.6817305917 0 0
2 -3.189 -20.2528701013 -4.5566651932 0.01 1.0e-04 0.0 38.6817305917 0 0
2 -3.189 -20.2528701013 -0.6509551932 0.01 1.0e-04 0.0 38.6817305917 0 0
2 -1.5945 -17.4911201013 -4.5566651932 0.01 1.0e-04 0.0 38.6817305917 0 0
2 -1.5945 -17.4911201013 -0.6509551932 0.01 1.0e-04 0.0 38.6817305917 0 0
1 -3.189 -22.0940401013 0.0 0.01 1.0 0.0 38.6817305917 0 0
1 -3.189 -20.2528701013 2.60381 0.01 1.0 0.0 38.6817305917 0 0
1 -1.5945 -19.3322801013 0.0 0.01 1.0 0.0 38.6817305917 0 0
1 -1.5945 -17.4911101013 2.60381 0.01 1.0 0.0 38.6817305917 0 0
2 -1.5945 -21.1734551013 1.3019 0.01 1.0e-04 0.0 38.6817305917 0 0
2 -3.189 -18.4117001013 1.3019 0.01 1.0e-04 0.0 38.6817305917 0 0
2 -1.5945 -21.1734551013 3.90571 0.01 1.0e-04 0.0 38.6817305917 0 0
2 -3.189 -18.4117001013 3.90571 0.01 1.0e-04 0.0 38.6817305917 0 0
2 -3.189 -22.0940401013 1.95286 0.01 1.0e-04 0.0 38.6817305917 0 0
2 -3.189 -22.0940401013 3.25476 0.01 1.0e-04 0.0 38.6817305917 0 0
2 -1.5945 -19.3322801013 1.95286 0.01 1.0e-04 0.0 38.6817305917 0 0
2 -1.5945 -19.3322801013 3.25476 0.01 1.0e-04 0.0 38.6817305917 0 0
2 -3.189 -20.2528701013 0.65095 0.01 1.0e-04 0.0 38.6817305917 0 0
2 -3.189 -20.2528701013 4.55666 0.01 1.0e-04 0.0 38.6817305917 0 0
2 -1.5945 -17.4911201013 0.65095 0.01 1.0e-04 0.0 38.6817305917 0 0
2 -1.5945 -17.4911201013 4.55666 0.01 1.0e-04 0.0 38.6817305917 0 0
1 -3.189 -22.0940401013 5.2076151932 0.01 1.0 0.0 38.6817305917 0 0
1 -3.189 -20.2528701013 7.8114251932 0.01 1.0 0.0 38.6817305917 0 0
1 -1.5945 -19.3322801013 5.2076151932 0.01 1.0 0.0 38.6817305917 0 0
1 -1.5945 -17.4911101013 7.8114251932 0.01 1.0 0.0 38.6817305917 0 0
2 -1.5945 -21.1734551013 6.5095151932 0.01 1.0e-04 0.0 38.6817305917 0 0
2 -3.189 -18.4117001013 6.5095151932 0.01 1.0e-04 0.0 38.6817305917 0 0
2 -1.5945 -21.1734551013 9.1133251932 0.01 1.0e-04 0.0 38.6817305917 0 0
2 -3.189 -18.4117001013 9.1133251932 0.01 1.0e-04 0.0 38.6817305917 0 0
2 -3.189 -22.0940401013 7.1604751932 0.01 1.0e-04 0.0 38.6817305917 0 0
2 -3.189 -22.0940401013 8.4623751932 0.01 1.0e-04 0.0 38.6817305917 0 0
2 -1.5945 -19.3322801013 7.1604751932 0.01 1.0e-04 0.0 38.6817305917 0 0
2 -1.5945 -19.3322801013 8.4623751932 0.01 1.0e-04 0.0 38.6817305917 0 0
2 -3.189 -20.2528701013 5.8585651932 0.01 1.0e-04 0.0 38.6817305917 0 0
2 -3.189 -20.2528701013 9.7642751932 0.01 1.0e-04 0.0 38.6817305917 0 0
2 -1.5945 -17.4911201013 5.8585651932 0.01 1.0e-04 0.0 38.6817305917 0 0
2 -1.5945 -17.4911201013 9.7642751932 0.01 1.0e-04 0.0 38.6817305917 0 0
1 -3.189 -22.0940401013 10.4152303863 0.01 1.0 0.0 38.6817305917 0 0
1 -3.189 -20.2528701013 13.0190403863 0.01 1.0 0.0 38.6817305917 0 0
1 -1.5945 -19.3322801013 10.4152303863 0.01 1.0 0.0 38.6817305917 0 0
1 -1.5945 -17.4911101013 13.0190403863 0.01 1.0 0.0 38.6817305917 0 0
2 -1.5945 -21.1734551013 11.7171303863 0.01 1.0e-04 0.0 38.6817305917 0 0
2 -3.189 -18.4117001013 11.7171303863 0.01 1.0e-04 0.0 38.6817305917 0 0
2 -1.5945 -21.1734551013 14.3209403863 0.01 1.0e-04 0.0 38.6817305917 0 0
2 -3.189 -18.4117001013 14.3209403863 0.01 1.0e-04 0.0 38.6817305917 0 0
2 -3.189 -22.0940401013 12.3680903863 0.01 1.0e-04 0.0 38.6817305917 0 0
2 -3.189 -22.0940401013 13.6699903863 0.01 1.0e-04 0.0 38.6817305917 0 0
2 -1.5945 -19.3322801013 12.3680903863 0.01 1.0e-04 0.0 38.6817305917 0 0
2 -1.5945 -19.3322801013 13.6699903863 0.01 1.0e-04 0.0 38.6817305917 0 0
2 -3.189 -20.2528701013 11.0661803863 0.01 1.0e-04 0.0 38.6817305917 0 0
2 -3.189 -20.2528701013 14.9718903863 0.01 1.0e-04 0.0 38.6817305917 0 0
2 -1.5945 -17.4911201013 11.0661803863 0.01 1.0e-04 0.0 38.6817305917 0 0
2 -1.5945 -17.4911201013 14.9718903863 0.01 1.0e-04 0.0 38.6817305917 0 0
1 -3.189 -22.0940401013 15.6228455795 0.01 1.0 0.0 38.6817305917 0 0
1 -3.189 -20.2528701013 18.2266555795 0.01 1.0 0.0 38.6817305917 0 0
1 -1.5945 -19.3322801013 15.6228455795 0.01 1.0 0.0 38.6817305917 0 0
1 -1.5945 -17.4911101013 18.2266555795 0.01 1.0 0.0 38.6817305917 0 0
2 -1.5945 -21.1734551013 16.9247455795 0.01 1.0e-04 0.0 38.6817305917 0 0
2 -3.189 -18.4117001013 16.9247455795 0.01 1.0e-04 0.0 38.6817305917 0 0
2 -1.5945 -21.1734551013 19.5285555795 0.01 1.0e-04 0.0 38.6817305917 0 0
2 -3.189 -18.4117001013 19.5285555795 0.01 1.0e-04 0.0 38.6817305917 0 0
2 -3.189 -22.0940401013 17.5757055795 0.01 1.0e-04 0.0 38.6817305917 0 0
2 -3.189 -22.0940401013 18.8776055795 0.01 1.0e-04 0.0 38.6817305917 0 0
2 -1.5945 -19.3322801013 17.5757055795 0.01 1.0e-04 0.0 38.6817305917 0 0
2 -1.5945 -19.3322801013 18.8776055795 0.01 1.0e-04 0.0 38.6817305917 0 0
2 -3.189 -20.2528701013 16.2737955795 0.01 1.0e-04 0.0 38.6817305917 0 0
2 -3.189 -20.2528701013 20.1795055795 0.01 1.0e-04 0.0 38.6817305917 0 0
2 -1.5945 -17.4911201013 16.2737955795 0.01 1.0e-04 0.0 38.6817305917 0 0
2 -1.5945 -17.4911201013 20.1795055795 0.01 1.0e-04 0.0 38.6817305917 0 0
1 -1.5945 -19.3322801013 20.8304607726 0.01 1.0 0.0 38.6817305917 0 0
1 -1.5945 -17.4911101013 23.4342707726 0.01 1.0 0.0 38.6817305917 0 0
2 -3.189 -18.4117001013 22.1323607726 0.01 1.0e-04 0.0 38.6817305917 0 0
2 -1.5945 -19.3322801013 22.7833207726 0.01 1.0e-04 0.0 38.6817305917 0 0
2 -3.189 -20.2528701013 21.4814107726 0.01 1.0e-04 0.0 38.6817305917 0 0
2 -1.5945 -17.4911201013 21.4814107726 0.01 1.0e-04 0.0 38.6817305917 0 0
2 -1.5945 -11.967610076 -26.6890311589 0.01 1.0e-04 0.0 38.6817305917 0 0
1 -3.189 -14.729360076 -23.4342659658 0.01 1.0 0.0 38.6817305917 0 0
1 -1.5945 -13.808770076 -26.0380759658 0.01 1.0 0.0 38.6817305917 0 0
1 -1.5945 -11.967600076 -23.4342659658 0.01 1.0 0.0 38.6817305917 0 0
2 -1.5945 -15.649945076 -24.7361759658 0.01 1.0e-04 0.0 38.6817305917 0 0
2 -3.189 -12.888190076 -24.7361759658 0.01 1.0e-04 0.0 38.6817305917 0 0
2 -1.5945 -15.649945076 -22.1323659658 0.01 1.0e-04 0.0 38.6817305917 0 0
2 -3.189 -12.888190076 -22.1323659658 0.01 1.0e-04 0.0 38.6817305917 0 0
2 -3.189 -16.570530076 -24.0852159658 0.01 1.0e-04 0.0 38.6817305917 0 0
2 -3.189 -16.570530076 -22.7833159658 0.01 1.0e-04 0.0 38.6817305917 0 0
2 -1.5945 -13.808770076 -24.0852159658 0.01 1.0e-04 0.0 38.6817305917 0 0
2 -1.5945 -13.808770076 -22.7833159658 0.01 1.0e-04 0.0 38.6817305917 0 0
2 -3.189 -14.729360076 -25.3871259658 0.01 1.0e-04 0.0 38.6817305917 0 0
2 -3.189 -14.729360076 -21.4814159658 0.01 1.0e-04 0.0 38.6817305917 0 0
2 -1.5945 -11.967610076 -25.3871259658 0.01 1.0e-04 0.0 38.6817305917 0 0
2 -1.5945 -11.967610076 -21.4814159658 0.01 1.0e-04 0.0 38.6817305917 0 0
1 -3.189 -16.570530076 -20.8304607726 0.01 1.0 0.0 38.6817305917 0 0
1 -3.189 -14.729360076 -18.2266507726 0.01 1.0 0.0 38.6817305917 0 0
1 -1.5945 -13.808770076 -20.8304607726 0.01 1.0 0.0 38.6817305917 0 0
1 -1.5945 -11.967600076 -18.2266507726 0.01 1.0 0.0 38.6817305917 0 0
2 -1.5945 -15.649945076 -19.5285607726 0.01 1.0e-04 0.0 38.6817305917 0 0
2 -3.189 -12.888190076 -19.5285607726 0.01 1.0e-04 0.0 38.6817305917 0 0
2 -1.5945 -15.649945076 -16.9247507726 0.01 1.0e-04 0.0 38.6817305917 0 0
2 -3.189 -12.888190076 -16.9247507726 0.01 1.0e-04 0.0 38.6817305917 0 0
2 -3.189 -16.570530076 -18.8776007726 0.01 1.0e-04 0.0 38.6817305917 0 0
2 -3.189 -16.570530076 -17.5757007726 0.01 1.0e-04 0.0 38.6817305917 0 0
2 -1.5945 -13.808770076 -18.8776007726 0.01 1.0e-04 0.0 38.6817305917 0 0
2 -1.5945 -13.808770076 -17.5757007726 0.01 1.0e-04 0.0 38.6817305917 0 0
2 -3.189 -14.729360076 -20.1795107726 0.01 1.0e-04 0.0 38.6817305917 0 0
2 -3.189 -14.729360076 -16.2738007726 0.01 1.0e-04 0.0 38.6817305917 0 0
2 -1.5945 -11.967610076 -20.1795107726 0.01 1.0e-04 0.0 38.6817305917 0 0
2 -1.5945 -11.967610076 -16.2738007726 0.01 1.0e-04 0.0 38.6817305917 0 0
1 -3.189 -16.570530076 -15.6228455795 0.01 1.0 0.0 38.6817305917 0 0
1 -3.189 -14.729360076 -13.0190355795 0.01 1.0 0.0 38.6817305917 0 0
1 -1.5945 -13.808770076 -15.6228455795 0.01 1.0 0.0 38.6817305917 0 0
1 -1.5945 -11.967600076 -13.0190355795 0.01 1.0 0.0 38.6817305917 0 0
2 -1.5945 -15.649945076 -14.3209455795 0.01 1.0e-04 0.0 38.6817305917 0 0
2 -3.189 -12.888190076 -14.3209455795 0.01 1.0e-04 0.0 38.6817305917 0 0
2 -1.5945 -15.649945076 -11.7171355795 0.01 1.0e-04 0.0 38.6817305917 0 0
2 -3.189 -12.888190076 -11.7171355795 0.01 1.0e-04 0.0 38.6817305917 0 0
2 -3.189 -16.570530076 -13.6699855795 0.01 1.0e-04 0.0 38.6817305917 0 0
2 -3.189 -16.570530076 -12.3680855795 0.01 1.0e-04 0.0 38.6817305917 0 0
2 -1.5945 -13.808770076 -13.6699855795 0.01 1.0e-04 0.0 38.6817305917 0 0
2 -1.5945 -13.808770076 -12.3680855795 0.01 1.0e-04 0.0 38.6817305917 0 0
2 -3.189 -14.729360076 -14.9718955795 0.01 1.0e-04 0.0 38.6817305917 0 0
2 -3.189 -14.729360076 -11.0661855795 0.01 1.0e-04 0.0 38.6817305917 0 0
2 -1.5945 -11.967610076 -14.9718955795 0.01 1.0e-04 0.0 38.6817305917 0 0
2 -1.5945 -11.967610076 -11.0661855795 0.01 1.0e-04 0.0 38.6817305917 0 0
1 -3.189 -16.570530076 -10.4152303863 0.01 1.0 0.0 38.6817305917 0 0
1 -3.189 -14.729360076 -7.8114203863 0.01 1.0 0.0 38.6817305917 0 0
1 -1.5945 -13.808770076 -10.4152303863 0.01 1.0 0.0 38.6817305917 0 0
1 -1.5945 -11.967600076 -7.8114203863 0.01 1.0 0.0 38.6817305917 0 0
2 -1.5945 -15.649945076 -9.1133303863 0.01 1.0e-04 0.0 38.6817305917 0 0
2 -3.189 -12.888190076 -9.1133303863 0.01 1.0e-04 0.0 38.6817305917 0 0
2 -1.5945 -15.649945076 -6.5095203863 0.01 1.0e-04 0.0 38.6817305917 0 0
2 -3.189 -12.888190076 -6.5095203863 0.01 1.0e-04 0.0 38.6817305917 0 0
2 -3.189 -16.570530076 -8.4623703863 0.01 1.0e-04 0.0 38.6817305917 0 0
2 -3.189 -16.570530076 -7.1604703863 0.01 1.0e-04 0.0 38.6817305917 0 0
2 -1.5945 -13.808770076 -8.4623703863 0.01 1.0e-04 0.0 38.6817305917 0 0
2 -1.5945 -13.808770076 -7.1604703863 0.01 1.0e-04 0.0 38.6817305917 0 0
2 -3.189 -14.729360076 -9.7642803863 0.01 1.0e-04 0.0 38.6817305917 0 0
2 -3.189 -14.729360076 -5.8585703863 0.01 1.0e-04 0.0 38.6817305917 0 0
2 -1.5945 -11.967610076 -9.7642803863 0.01 1.0e-04 0.0 38.6817305917 0 0
2 -1.5945 -11.967610076 -5.8585703863 0.01 1.0e-04 0.0 38.6817305917 0 0
1 -3.189 -16.570530076 -5.2076151932 0.01 1.0 0.0 38.6817305917 0 0
1 -3.189 -14.729360076 -2.6038051932 0.01 1.0 0.0 38.6817305917 0 0
1 -1.5945 -13.808770076 -5.2076151932 0.01 1.0 0.0 38.6817305917 0 0
1 -1.5945 -11.967600076 -2.6038051932 0.01 1.0 0.0 38.6817305917 0 0
2 -1.5945 -15.649945076 -3.9057151932 0.01 1.0e-04 0.0 38.6817305917 0 0
2 -3.189 -12.888190076 -3.9057151932 0.01 1.0e-04 0.0 38.6817305917 0 0
2 -1.5945 -15.649945076 -1.3019051932 0.01 1.0e-04 0.0 38.6817305917 0 0
2 -3.189 -12.888190076 -1.3019051932 0.01 1.0e-04 0.0 38.6817305917 0 0
2 -3.189 -16.570530076 -3.2547551932 0.01 1.0e-04 0.0 38.6817305917 0 0
2 -3.189 -16.570530076 -1.9528551932 0.01 1.0e-04 0.0 38.6817305917 0 0
2 -1.5945 -13.808770076 -3.2547551932 0.01 1.0e-04 0.0 38.6817305917 0 0
2 -1.5945 -13.808770076 -1.9528551932 0.01 1.0e-04 0.0 38.6817305917 0 0
2 -3.189 -14.729360076 -4.5566651932 0.01 1.0e-04 0.0 38.6817305917 0 0
2 -3.189 -14.729360076 -0.6509551932 0.01 1.0e-04 0.0 38.6817305917 0 0
2 -1.5945 -11.967610076 -4.5566651932 0.01 1.0e-04 0.0 38.6817305917 0 0
2 -1.5945 -11.967610076 -0.6509551932 0.01 1.0e-04 0.0 38.6817305917 0 0
1 -3.189 -16.570530076 0.0 0.01 1.0 0.0 38.6817305917 0 0
1 -3.189 -14.729360076 2.60381 0.01 1.0 0.0 38.6817305917 0 0
1 -1.5945 -13.808770076 0.0 0.01 1.0 0.0 38.6817305917 0 0
1 -1.5945 -11.967600076 2.60381 0.01 1.0 0.0 38.6817305917 0 0
2 -1.5945 -15.649945076 1.3019 0.01 1.0e-04 0.0 38.6817305917 0 0
2 -3.189 -12.888190076 1.3019 0.01 1.0e-04 0.0 38.6817305917 0 0
2 -1.5945 -15.649945076 3.90571 0.01 1.0e-04 0.0 38.6817305917 0 0
2 -3.189 -12.888190076 3.90571 0.01 1.0e-04 0.0 38.6817305917 0 0
2 -3.189 -16.570530076 1.95286 0.01 1.0e-04 0.0 38.6817305917 0 0
2 -3.189 -16.570530076 3.25476 0.01 1.0e-04 0.0 38.6817305917 0 0
2 -1.5945 -13.808770076 1.95286 0.01 1.0e-04 0.0 38.6817305917 0 0
2 -1.5945 -13.808770076 3.25476 0.01 1.0e-04 0.0 38.6817305917 0 0
2 -3.189 -14.729360076 0.65095 0.01 1.0e-04 0.0 38.6817305917 0 0
2 -3.189 -14.729360076 4.55666 0.01 1.0e-04 0.0 38.6817305917 0 0
2 -1.5945 -11.967610076 0.65095 0.01 1.0e-04 0.0 38.6817305917 0 0
2 -1.5945 -11.967610076 4.55666 0.01 1.0e-04 0.0 38.6817305917 0 0
1 -3.189 -16.570530076 5.2076151932 0.01 1.0 0.0 38.6817305917 0 0
1 -3.189 -14.729360076 7.8114251932 0.01 1.0 0.0 38.6817305917 0 0
1 -1.5945 -13.808770076 5.2076151932 0.01 1.0 0.0 38.6817305917 0 0
1 -1.5945 -11.967600076 7.8114251932 0.01 1.0 0.0 38.6817305917 0 0
2 -1.5945 -15.649945076 6.5095151932 0.01 1.0e-04 0.0 38.6817305917 0 0
2 -3.189 -12.888190076 6.5095151932 0.01 1.0e-04 0.0 38.6817305917 0 0
2 -1.5945 -15.649945076 9.1133251932 0.01 1.0e-04 0.0 38.6817305917 0 0
2 -3.189 -12.888190076 9.1133251932 0.01 1.0e-04 0.0 38.6817305917 0 0
2 -3.189 -16.570530076 7.1604751932 0.01 1.0e-04 0.0 38.6817305917 0 0
2 -3.189 -16.570530076 8.4623751932 0.01 1.0e-04 0.0 38.6817305917 0 0
2 -1.5945 -13.808770076 7.1604751932 0.01 1.0e-04 0.0 38.6817305917 0 0
2 -1.5945 -13.808770076 8.4623751932 0.01 1.0e-04 0.0 38.6817305917 0 0
2 -3.189 -14.729360076 5.8585651932 0.01 1.0e-04 0.0 38.6817305917 0 0
2 -3.189 -14.729360076 9.7642751932 0.01 1.0e-04 0.0 38.6817305917 0 0
2 -1.5945 -11.967610076 5.8585651932 0.01 1.0e-04 0.0 38.6817305917 0 0
2 -1.5945 -11.967610076 9.7642751932 0.01 1.0e-04 0.0 38.6817305917 0 0
1 -3.189 -16.570530076 10.4152303863 0.01 1.0 0.0 38.6817305917 0 0
1 -3.189 -14.729360076 13.0190403863 0.01 1.0 0.0 38.6817305917 0 0
1 -1.5945 -13.808770076 10.4152303863 0.01 1.0 0.0 38.6817305917 0 0
1 -1.5945 -11.967600076 13.0190403863 0.01 1.0 0.0 38.6817305917 0 0
2 -1.5945 -15.649945076 11.7171303863 0.01 1.0e-04 0.0 38.6817305917 0 0
2 -3.189 -12.888190076 11.7171303863 0.01 1.0e-04 0.0 38.6817305917 0 0
2 -1.5945 -15.649945076 14.3209403863 0.01 1.0e-04 0.0 38.6817305917 0 0
2 -3.189 -12.888190076 14.3209403863 0.01 1.0e-04 0.0 38.6817305917 0 0
2 -3.189 -16.570530076 12.3680903863 0.01 1.0e-04 0.0 38.6817305917 0 0
2 -3.189 -16.570530076 13.6699903863 0.01 1.0e-04 0.0 38.6817305917 0 0
2 -1.5945 -13.808770076 12.3680903863 0.01 1.0e-04 0.0 38.6817305917 0 0
2 -1.5945 -13.808770076 13.6699903863 0.01 1.0e-04 0.0 38.6817305917 0 0
2 -3.189 -14.729360076 11.0661803863 0.01 1.0e-04 0.0 38.6817305917 0 0
2 -3.189 -14.729360076 14.9718903863 0.01 1.0e-04 0.0 38.6817305917 0 0
2 -1.5945 -11.967610076 11.0661803863 0.01 1.0e-04 0.0 38.6817305917 0 0
2 -1.5945 -11.967610076 14.9718903863 0.01 1.0e-04 0.0 38.6817305917 0 0
1 -3.189 -16.570530076 15.6228455795 0.01 1.0 0.0 38.6817305917 0 0
1 -3.189 -14.729360076 18.2266555795 0.01 1.0 0.0 38.6817305917 0 0
1 -1.5945 -13.808770076 15.6228455795 0.01 1.0 0.0 38.6817305917 0 0
1 -1.5945 -11.967600076 18.2266555795 0.01 1.0 0.0 38.6817305917 0 0
2 -1.5945 -15.649945076 16.9247455795 0.01 1.0e-04 0.0 38.6817305917 0 0
2 -3.189 -12.888190076 16.9247455795 0.01 1.0e-04 0.0 38.6817305917 0 0
2 -1.5945 -15.649945076 19.5285555795 0.01 1.0e-04 0.0 38.6817305917 0 0
2 -3.189 -12.888190076 19.5285555795 0.01 1.0e-04 0.0 38.6817305917 0 0
2 -3.189 -16.570530076 17.5757055795 0.01 1.0e-04 0.0 38.6817305917 0 0
2 -3.189 -16.570530076 18.8776055795 0.01 1.0e-04 0.0 38.6817305917 0 0
2 -1.5945 -13.808770076 17.5757055795 0.01 1.0e-04 0.0 38.6817305917 0 0
2 -1.5945 -13.808770076 18.8776055795 0.01 1.0e-04 0.0 38.6817305917 0 0
2 -3.189 -14.729360076 16.2737955795 0.01 1.0e-04 0.0 38.6817305917 0 0
2 -3.189 -14.729360076 20.1795055795 0.01 1.0e-04 0.0 38.6817305917 0 0
2 -1.5945 -11.967610076 16.2737955795 0.01 1.0e-04 0.0 38.6817305917 0 0
2 -1.5945 -11.967610076 20.1795055795 0.01 1.0e-04 0.0 38.6817305917 0 0
1 -3.189 -16.570530076 20.8304607726 0.01 1.0 0.0 38.6817305917 0 0
1 -3.189 -14.729360076 23.4342707726 0.01 1.0 0.0 38.6817305917 0 0
1 -1.5945 -13.808770076 20.8304607726 0.01 1.0 0.0 38.6817305917 0 0
1 -1.5945 -11.967600076 23.4342707726 0.01 1.0 0.0 38.6817305917 0 0
2 -1.5945 -15.649945076 22.1323607726 0.01 1.0e-04 0.0 38.6817305917 0 0
2 -3.189 -12.888190076 22.1323607726 0.01 1.0e-04 0.0 38.6817305917 0 0
2 -1.5945 -15.649945076 24.7361707726 0.01 1.0e-04 0.0 38.6817305917 0 0
2 -3.189 -12.888190076 24.7361707726 0.01 1.0e-04 0.0 38.6817305917 0 0
2 -3.189 -16.570530076 22.7833207726 0.01 1.0e-04 0.0 38.6817305917 0 0
2 -3.189 -16.570530076 24.0852207726 0.01 1.0e-04 0.0 38.6817305917 0 0
2 -1.5945 -13.808770076 22.7833207726 0.01 1.0e-04 0.0 38.6817305917 0 0
2 -1.5945 -13.808770076 24.0852207726 0.01 1.0e-04 0.0 38.6817305917 0 0
2 -3.189 -14.729360076 21.4814107726 0.01 1.0e-04 0.0 38.6817305917 0 0
2 -3.189 -14.729360076 25.3871207726 0.01 1.0e-04 0.0 38.6817305917 0 0
2 -1.5945 -11.967610076 21.4814107726 0.01 1.0e-04 0.0 38.6817305917 0 0
2 -1.5945 -11.967610076 25.3871207726 0.01 1.0e-04 0.0 38.6817305917 0 0
1 -1.5945 -13.808770076 26.0380759658 0.01 1.0 0.0 38.6817305917 0 0
2 -1.5945 -11.967610076 26.6890259658 0.01 1.0e-04 0.0 38.6817305917 0 0
1 -1.5945 -6.4440900507 -28.6418811589 0.01 1.0 0.0 38.6817305917 0 0
2 -1.5945 -10.1264350507 -27.3399811589 0.01 1.0e-04 0.0 38.6817305917 0 0
2 -3.189 -7.3646800507 -27.3399811589 0.01 1.0e-04 0.0 38.6817305917 0 0
2 -1.5945 -8.2852600507 -27.9909311589 0.01 1.0e-04 0.0 38.6817305917 0 0
2 -3.189 -9.2058500507 -26.6890311589 0.01 1.0e-04 0.0 38.6817305917 0 0
2 -1.5945 -6.4441000507 -26.6890311589 0.01 1.0e-04 0.0 38.6817305917 0 0