ITEM: TIMESTEP
0
ITEM: NUMBER OF ATOMS
5208
ITEM: BOX BOUNDS pp ff ff
-22.326 54.218
-27.85579 27.8558
-24.48142 24.48141
ITEM: ATOMS type x y z stdvq molarfraction chemicalmultp thermalmultp chemicalmultpbcc thermalmultpbcc
12 -22.3248 -20.66507 -2.95422 0.07812 1.0 -1.93409 38.68173 0.0 0.0
12 -22.3248 -14.94856 -13.38678 0.09557 1.0 -1.93409 38.68173 0.0 0.0
12 -22.32482 -16.76798 -10.83707 0.08867 1.0 -1.93409 38.68173 0.0 0.0
12 -22.32487 -14.97166 -8.01554 0.08953 1.0 -1.93409 38.68173 0.0 0.0
12 -22.32477 -16.82093 -5.33701 0.09065 1.0 -1.93409 38.68173 0.0 0.0
12 -22.32481 -14.99684 -2.62506 0.10657 1.0 -1.93409 38.68173 0.0 0.0
12 -20.73038 -17.79475 -8.09066 0.08861 1.0 -1.93409 38.68173 0.0 0.0
12 -20.7304 -19.57608 -5.57512 0.09256 1.0 -1.93409 38.68173 0.0 0.0
12 -20.73037 -17.84881 -2.73455 0.08823 1.0 -1.93409 38.68173 0.0 0.0
12 -19.135817388 -20.66492 -2.9543 0.07812 1.0 -1.93409 38.68173 0.0 0.0
12 -19.135805283 -14.94835 -13.387 0.09561 1.0 -1.93409 38.68173 0.0 0.0
12 -19.1359034341 -16.76779 -10.83717 0.0887 1.0 -1.93409 38.68173 0.0 0.0
12 -19.1359151515 -14.97161 -8.01552 0.08953 1.0 -1.93409 38.68173 0.0 0.0
12 -19.135820554 -16.82097 -5.33694 0.09065 1.0 -1.93409 38.68173 0.0 0.0
12 -19.135820777 -14.9968 -2.62503 0.10657 1.0 -1.93409 38.68173 0.0 0.0
12 -17.54133 -17.79471 -8.09068 0.08862 1.0 -1.93409 38.68173 0.0 0.0
12 -17.54125 -19.57607 -5.57516 0.09256 1.0 -1.93409 38.68173 0.0 0.0
12 -17.54128 -17.84878 -2.73455 0.08823 1.0 -1.93409 38.68173 0.0 0.0
12 -15.94678 -20.66496 -2.95428 0.07812 1.0 -1.93409 38.68173 0.0 0.0
12 -15.9468 -14.94839 -13.38698 0.09561 1.0 -1.93409 38.68173 0.0 0.0
12 -15.94671 -16.7678 -10.83716 0.0887 1.0 -1.93409 38.68173 0.0 0.0
12 -15.94677 -14.97164 -8.01553 0.08953 1.0 -1.93409 38.68173 0.0 0.0
12 -15.94682 -16.82097 -5.33697 0.09065 1.0 -1.93409 38.68173 0.0 0.0
12 -15.94683 -14.99682 -2.62505 0.10657 1.0 -1.93409 38.68173 0.0 0.0
12 -14.35238 -17.79489 -8.09055 0.08858 1.0 -1.93409 38.68173 0.0 0.0
12 -14.3523 -19.5762 -5.57506 0.09253 1.0 -1.93409 38.68173 0.0 0.0
12 -14.35231 -17.84881 -2.73457 0.08823 1.0 -1.93409 38.68173 0.0 0.0
12 -22.32491 -10.99671 -21.29537 0.08914 1.0 -1.93409 38.68173 0.0 0.0
12 -22.32487 -9.2012 -18.70961 0.07676 1.0 -1.93409 38.68173 0.0 0.0
12 -22.32481 -11.14141 -15.99017 0.08802 1.0 -1.93409 38.68173 0.0 0.0
12 -22.32481 -9.31629 -13.14574 0.10738 1.0 -1.93409 38.68173 0.0 0.0
12 -22.3248 -11.22643 -10.52847 0.10797 1.0 -1.93409 38.68173 0.0 0.0
12 -22.32482 -9.33994 -7.83579 0.10033 1.0 -1.93409 38.68173 0.0 0.0
12 -22.32483 -11.20393 -5.23261 0.10062 1.0 -1.93409 38.68173 0.0 0.0
12 -22.32482 -9.33957 -2.60559 0.0986 1.0 -1.93409 38.68173 0.0 0.0
12 -22.32483 -5.52368 -21.31449 0.07866 1.0 -1.93409 38.68173 0.0 0.0
12 -22.32483 -3.68152 -18.60997 0.08693 1.0 -1.93409 38.68173 0.0 0.0
12 -22.32481 -5.5709 -15.76046 0.11001 1.0 -1.93409 38.68173 0.0 0.0
12 -22.32481 -3.72589 -13.04246 0.10029 1.0 -1.93409 38.68173 0.0 0.0
12 -22.32483 -5.58654 -10.41906 0.09906 1.0 -1.93409 38.68173 0.0 0.0
12 -22.32483 -3.73715 -7.78876 0.09832 1.0 -1.93409 38.68173 0.0 0.0
12 -22.32483 -5.58403 -5.19125 0.09793 1.0 -1.93409 38.68173 0.0 0.0
12 -22.32482 -3.73632 -2.59003 0.09737 1.0 -1.93409 38.68173 0.0 0.0
12 -22.32482 -0.00617 -21.31474 0.07902 1.0 -1.93409 38.68173 0.0 0.0
12 -22.32479 0.00571 -15.73629 0.10793 1.0 -1.93409 38.68173 0.0 0.0
12 -22.32482 0.00377 -10.40166 0.09872 1.0 -1.93409 38.68173 0.0 0.0
12 -22.32482 0.00285 -5.18002 0.09744 1.0 -1.93409 38.68173 0.0 0.0
12 -20.73034 -12.0509 -18.72542 0.0907 1.0 -1.93409 38.68173 0.0 0.0
12 -20.73049 -13.91319 -16.14258 0.08686 1.0 -1.93409 38.68173 0.0 0.0
12 -20.73037 -12.12119 -13.31227 0.09016 1.0 -1.93409 38.68173 0.0 0.0
12 -20.73034 -13.99754 -10.64468 0.08883 1.0 -1.93409 38.68173 0.0 0.0
12 -20.73033 -12.15353 -7.87798 0.10587 1.0 -1.93409 38.68173 0.0 0.0
12 -20.73035 -14.05021 -5.27555 0.10684 1.0 -1.93409 38.68173 0.0 0.0
12 -20.73032 -12.15467 -2.61746 0.10044 1.0 -1.93409 38.68173 0.0 0.0
12 -20.73036 -8.25982 -21.39834 0.0734 1.0 -1.93409 38.68173 0.0 0.0
12 -20.73013 -6.446 -18.63322 0.08704 1.0 -1.93409 38.68173 0.0 0.0
12 -20.73029 -8.38363 -15.84586 0.11387 1.0 -1.93409 38.68173 0.0 0.0
12 -20.73033 -6.51409 -13.06384 0.10148 1.0 -1.93409 38.68173 0.0 0.0
12 -20.73033 -8.3946 -10.4608 0.10115 1.0 -1.93409 38.68173 0.0 0.0
12 -20.73033 -6.537 -7.80553 0.09872 1.0 -1.93409 38.68173 0.0 0.0
12 -20.73033 -8.38804 -5.20792 0.09861 1.0 -1.93409 38.68173 0.0 0.0
12 -20.73033 -6.53409 -2.59607 0.09789 1.0 -1.93409 38.68173 0.0 0.0
12 -20.73044 -2.76164 -21.31591 0.07928 1.0 -1.93409 38.68173 0.0 0.0
12 -20.73021 -0.91988 -18.60423 0.08723 1.0 -1.93409 38.68173 0.0 0.0
12 -20.73015 -2.78126 -15.7416 0.10837 1.0 -1.93409 38.68173 0.0 0.0
12 -20.73032 -0.93807 -13.03772 0.10029 1.0 -1.93409 38.68173 0.0 0.0
12 -20.73036 -2.78854 -10.40414 0.09874 1.0 -1.93409 38.68173 0.0 0.0
12 -20.73033 -0.94271 -7.78323 0.09811 1.0 -1.93409 38.68173 0.0 0.0
12 -20.73033 -2.78826 -5.18239 0.09754 1.0 -1.93409 38.68173 0.0 0.0
12 -20.73033 -0.94439 -2.58779 0.09709 1.0 -1.93409 38.68173 0.0 0.0
12 -19.13586913 -10.99665 -21.29534 0.08914 1.0 -1.93409 38.68173 0.0 0.0
12 -19.135807398 -9.20091 -18.70948 0.07678 1.0 -1.93409 38.68173 0.0 0.0
12 -19.135855061 -11.14144 -15.99015 0.08802 1.0 -1.93409 38.68173 0.0 0.0
12 -19.135818711 -9.31611 -13.14578 0.10738 1.0 -1.93409 38.68173 0.0 0.0
12 -19.13584043 -11.22645 -10.52846 0.10798 1.0 -1.93409 38.68173 0.0 0.0
12 -19.135826777 -9.33992 -7.83577 0.10033 1.0 -1.93409 38.68173 0.0 0.0
12 -19.135825906 -11.20392 -5.2326 0.10062 1.0 -1.93409 38.68173 0.0 0.0
12 -19.135824177 -9.33954 -2.60559 0.0986 1.0 -1.93409 38.68173 0.0 0.0
12 -19.135780674 -5.52376 -21.31411 0.07866 1.0 -1.93409 38.68173 0.0 0.0
12 -19.13475 -3.68181 -18.6091 0.08701 1.0 -1.93409 38.68173 0.0 0.0
12 -19.1359199787 -5.57134 -15.75978 0.10996 1.0 -1.93409 38.68173 0.0 0.0
12 -19.135860756 -3.72586 -13.04235 0.10025 1.0 -1.93409 38.68173 0.0 0.0
12 -19.135816863 -5.58655 -10.41909 0.09907 1.0 -1.93409 38.68173 0.0 0.0
12 -19.135825701 -3.73713 -7.78877 0.09832 1.0 -1.93409 38.68173 0.0 0.0
12 -19.135825701 -5.58404 -5.19125 0.09793 1.0 -1.93409 38.68173 0.0 0.0
12 -19.135824948 -3.7363 -2.59003 0.09737 1.0 -1.93409 38.68173 0.0 0.0
12 -19.135850006 -0.00622 -21.31469 0.07902 1.0 -1.93409 38.68173 0.0 0.0
12 -19.1360381445 0.00588 -15.73635 0.1079 1.0 -1.93409 38.68173 0.0 0.0
12 -19.135851406 0.00377 -10.4016 0.09871 1.0 -1.93409 38.68173 0.0 0.0
12 -19.135825 0.00284 -5.18002 0.09744 1.0 -1.93409 38.68173 0.0 0.0
12 -17.54138 -12.05084 -18.72542 0.0907 1.0 -1.93409 38.68173 0.0 0.0
12 -17.54123 -13.91316 -16.14259 0.08686 1.0 -1.93409 38.68173 0.0 0.0
12 -17.54125 -12.12117 -13.31226 0.09016 1.0 -1.93409 38.68173 0.0 0.0
12 -17.54133 -13.99754 -10.64466 0.08884 1.0 -1.93409 38.68173 0.0 0.0
12 -17.54133 -12.15351 -7.87795 0.10587 1.0 -1.93409 38.68173 0.0 0.0
12 -17.54131 -14.05023 -5.27556 0.10684 1.0 -1.93409 38.68173 0.0 0.0
12 -17.54132 -12.15466 -2.61747 0.10044 1.0 -1.93409 38.68173 0.0 0.0
12 -17.54134 -8.25993 -21.39845 0.07338 1.0 -1.93409 38.68173 0.0 0.0
12 -17.54131 -6.4452 -18.6326 0.0871 1.0 -1.93409 38.68173 0.0 0.0
12 -17.54131 -8.38337 -15.84589 0.11383 1.0 -1.93409 38.68173 0.0 0.0
12 -17.54133 -6.51396 -13.06416 0.10147 1.0 -1.93409 38.68173 0.0 0.0
12 -17.54132 -8.39462 -10.46079 0.10115 1.0 -1.93409 38.68173 0.0 0.0
12 -17.54132 -6.53699 -7.80553 0.09872 1.0 -1.93409 38.68173 0.0 0.0
12 -17.54132 -8.38804 -5.20791 0.09861 1.0 -1.93409 38.68173 0.0 0.0
12 -17.54132 -6.53408 -2.59607 0.09789 1.0 -1.93409 38.68173 0.0 0.0
12 -17.54132 -2.76178 -21.31555 0.07928 1.0 -1.93409 38.68173 0.0 0.0
12 -17.54131 -0.92 -18.60414 0.08723 1.0 -1.93409 38.68173 0.0 0.0
12 -17.54132 -2.77841 -15.73672 0.10827 1.0 -1.93409 38.68173 0.0 0.0
12 -17.54133 -0.93769 -13.0371 0.10022 1.0 -1.93409 38.68173 0.0 0.0
12 -17.54132 -2.78857 -10.40415 0.09874 1.0 -1.93409 38.68173 0.0 0.0
12 -17.54132 -0.9427 -7.78323 0.09811 1.0 -1.93409 38.68173 0.0 0.0
12 -17.54132 -2.78826 -5.18238 0.09754 1.0 -1.93409 38.68173 0.0 0.0
12 -17.54132 -0.94438 -2.58779 0.09709 1.0 -1.93409 38.68173 0.0 0.0
12 -15.94684 -10.99668 -21.29531 0.08914 1.0 -1.93409 38.68173 0.0 0.0
12 -15.94685 -9.20094 -18.70951 0.07678 1.0 -1.93409 38.68173 0.0 0.0
12 -15.94678 -11.14144 -15.99016 0.08802 1.0 -1.93409 38.68173 0.0 0.0
12 -15.94681 -9.31613 -13.14582 0.10738 1.0 -1.93409 38.68173 0.0 0.0
12 -15.9468 -11.22644 -10.52846 0.10797 1.0 -1.93409 38.68173 0.0 0.0
12 -15.94682 -9.33993 -7.83577 0.10033 1.0 -1.93409 38.68173 0.0 0.0
12 -15.94682 -11.20392 -5.23261 0.10062 1.0 -1.93409 38.68173 0.0 0.0
12 -15.94682 -9.33955 -2.60559 0.0986 1.0 -1.93409 38.68173 0.0 0.0
12 -15.94686 -5.52373 -21.31412 0.07866 1.0 -1.93409 38.68173 0.0 0.0
12 -15.94788 -3.68181 -18.60912 0.08701 1.0 -1.93409 38.68173 0.0 0.0
12 -15.94672 -5.57135 -15.75979 0.10996 1.0 -1.93409 38.68173 0.0 0.0
12 -15.94679 -3.72587 -13.04236 0.10025 1.0 -1.93409 38.68173 0.0 0.0
12 -15.94683 -5.58654 -10.4191 0.09907 1.0 -1.93409 38.68173 0.0 0.0
12 -15.94682 -3.73714 -7.78878 0.09832 1.0 -1.93409 38.68173 0.0 0.0
12 -15.94682 -5.58404 -5.19125 0.09793 1.0 -1.93409 38.68173 0.0 0.0
12 -15.94682 -3.73631 -2.59003 0.09737 1.0 -1.93409 38.68173 0.0 0.0
12 -15.94678 -0.0062 -21.3147 0.07902 1.0 -1.93409 38.68173 0.0 0.0
12 -15.9466 0.00587 -15.73637 0.1079 1.0 -1.93409 38.68173 0.0 0.0
12 -15.94679 0.00377 -10.40161 0.09871 1.0 -1.93409 38.68173 0.0 0.0
12 -15.94682 0.00285 -5.18002 0.09744 1.0 -1.93409 38.68173 0.0 0.0
12 -14.35239 -12.05113 -18.72519 0.09071 1.0 -1.93409 38.68173 0.0 0.0
12 -14.35235 -13.91345 -16.14245 0.08685 1.0 -1.93409 38.68173 0.0 0.0
12 -14.3523 -12.12121 -13.31227 0.09016 1.0 -1.93409 38.68173 0.0 0.0
12 -14.35237 -13.99751 -10.64471 0.08883 1.0 -1.93409 38.68173 0.0 0.0
12 -14.35234 -12.15354 -7.87799 0.10587 1.0 -1.93409 38.68173 0.0 0.0
12 -14.35235 -14.0502 -5.27557 0.10684 1.0 -1.93409 38.68173 0.0 0.0
12 -14.35232 -12.15469 -2.61747 0.10044 1.0 -1.93409 38.68173 0.0 0.0
12 -14.35237 -8.25979 -21.39844 0.07341 1.0 -1.93409 38.68173 0.0 0.0
12 -14.35255 -6.44603 -18.63322 0.08704 1.0 -1.93409 38.68173 0.0 0.0
12 -14.35237 -8.38362 -15.84589 0.11387 1.0 -1.93409 38.68173 0.0 0.0
12 -14.35232 -6.5141 -13.06386 0.10148 1.0 -1.93409 38.68173 0.0 0.0
12 -14.35231 -8.3946 -10.46081 0.10115 1.0 -1.93409 38.68173 0.0 0.0
12 -14.35232 -6.53701 -7.80553 0.09872 1.0 -1.93409 38.68173 0.0 0.0
12 -14.35232 -8.38804 -5.20792 0.09861 1.0 -1.93409 38.68173 0.0 0.0
12 -14.35232 -6.5341 -2.59607 0.09789 1.0 -1.93409 38.68173 0.0 0.0
12 -14.35223 -2.76161 -21.316 0.07927 1.0 -1.93409 38.68173 0.0 0.0
12 -14.35245 -0.9199 -18.60425 0.08723 1.0 -1.93409 38.68173 0.0 0.0
12 -14.35254 -2.78126 -15.74159 0.10837 1.0 -1.93409 38.68173 0.0 0.0
12 -14.35233 -0.93807 -13.03773 0.10029 1.0 -1.93409 38.68173 0.0 0.0
12 -14.35228 -2.78854 -10.40415 0.09874 1.0 -1.93409 38.68173 0.0 0.0
12 -14.35232 -0.94271 -7.78324 0.09811 1.0 -1.93409 38.68173 0.0 0.0
12 -14.35232 -2.78825 -5.18239 0.09754 1.0 -1.93409 38.68173 0.0 0.0
12 -14.35232 -0.94439 -2.58779 0.09709 1.0 -1.93409 38.68173 0.0 0.0
12 -22.32483 1.84623 -18.60768 0.08743 1.0 -1.93409 38.68173 0.0 0.0
12 -22.32481 1.85079 -13.03787 0.10024 1.0 -1.93409 38.68173 0.0 0.0
12 -22.32483 1.84903 -7.78419 0.09811 1.0 -1.93409 38.68173 0.0 0.0
12 -22.32482 1.84551 -2.588 0.09709 1.0 -1.93409 38.68173 0.0 0.0
12 -22.32482 5.50185 -21.33702 0.07865 1.0 -1.93409 38.68173 0.0 0.0
12 -22.32485 7.38353 -18.67954 0.08637 1.0 -1.93409 38.68173 0.0 0.0
12 -22.3248 5.57445 -15.7457 0.10967 1.0 -1.93409 38.68173 0.0 0.0
12 -22.32481 7.44639 -13.0915 0.10278 1.0 -1.93409 38.68173 0.0 0.0
12 -22.32482 5.59379 -10.42083 0.09914 1.0 -1.93409 38.68173 0.0 0.0
12 -22.32483 7.44708 -7.81253 0.09895 1.0 -1.93409 38.68173 0.0 0.0
12 -22.32482 5.59245 -5.19046 0.09809 1.0 -1.93409 38.68173 0.0 0.0
12 -22.32483 7.43803 -2.59803 0.09799 1.0 -1.93409 38.68173 0.0 0.0
12 -22.32486 11.02707 -21.33225 0.08441 1.0 -1.93409 38.68173 0.0 0.0
12 -22.3249 12.94733 -18.82226 0.08155 1.0 -1.93409 38.68173 0.0 0.0
12 -22.32485 11.17232 -15.96773 0.09156 1.0 -1.93409 38.68173 0.0 0.0
12 -22.3248 13.05058 -13.32941 0.08842 1.0 -1.93409 38.68173 0.0 0.0
12 -22.32481 11.21238 -10.50636 0.10713 1.0 -1.93409 38.68173 0.0 0.0
12 -22.3248 13.10233 -7.8943 0.1079 1.0 -1.93409 38.68173 0.0 0.0
12 -22.32482 11.21144 -5.22695 0.10054 1.0 -1.93409 38.68173 0.0 0.0
12 -22.32483 13.07045 -2.62157 0.10081 1.0 -1.93409 38.68173 0.0 0.0
12 -20.73034 2.7505 -21.31958 0.07919 1.0 -1.93409 38.68173 0.0 0.0
12 -20.73035 4.61013 -18.61932 0.08812 1.0 -1.93409 38.68173 0.0 0.0
12 -20.73036 2.78549 -15.73912 0.10792 1.0 -1.93409 38.68173 0.0 0.0
12 -20.73032 4.64237 -13.04678 0.10022 1.0 -1.93409 38.68173 0.0 0.0
12 -20.73033 2.79657 -10.40512 0.0988 1.0 -1.93409 38.68173 0.0 0.0
12 -20.73033 4.64431 -7.79263 0.09839 1.0 -1.93409 38.68173 0.0 0.0
12 -20.73033 2.7947 -5.18214 0.09765 1.0 -1.93409 38.68173 0.0 0.0
12 -20.73033 4.63824 -2.59107 0.0974 1.0 -1.93409 38.68173 0.0 0.0
12 -20.73037 8.23062 -21.41913 0.07573 1.0 -1.93409 38.68173 0.0 0.0
12 -20.73042 10.13801 -18.7447 0.06868 1.0 -1.93409 38.68173 0.0 0.0
12 -20.73034 8.38619 -15.8716 0.11492 1.0 -1.93409 38.68173 0.0 0.0
12 -20.73034 10.26835 -13.16598 0.10944 1.0 -1.93409 38.68173 0.0 0.0
12 -20.73032 8.3915 -10.45424 0.10071 1.0 -1.93409 38.68173 0.0 0.0
12 -20.73033 10.25953 -7.8447 0.10054 1.0 -1.93409 38.68173 0.0 0.0
12 -20.73033 8.39786 -5.20628 0.09874 1.0 -1.93409 38.68173 0.0 0.0
12 -20.73033 10.24732 -2.60803 0.09876 1.0 -1.93409 38.68173 0.0 0.0
12 -20.73033 13.96812 -16.11859 0.10046 1.0 -1.93409 38.68173 0.0 0.0
12 -20.73037 14.0525 -10.68385 0.09099 1.0 -1.93409 38.68173 0.0 0.0
12 -20.73028 14.04618 -5.2522 0.10602 1.0 -1.93409 38.68173 0.0 0.0
12 -19.135859536 1.84626 -18.60763 0.08743 1.0 -1.93409 38.68173 0.0 0.0
12 -19.135845313 1.85086 -13.03782 0.10024 1.0 -1.93409 38.68173 0.0 0.0
12 -19.135825978 1.84904 -7.78417 0.09811 1.0 -1.93409 38.68173 0.0 0.0
12 -19.135824892 1.84552 -2.588 0.09709 1.0 -1.93409 38.68173 0.0 0.0
12 -19.135835376 5.50179 -21.33692 0.07865 1.0 -1.93409 38.68173 0.0 0.0
12 -19.135855634 7.38356 -18.67949 0.08638 1.0 -1.93409 38.68173 0.0 0.0
12 -19.135828058 5.57445 -15.74568 0.10967 1.0 -1.93409 38.68173 0.0 0.0
12 -19.135818099 7.4464 -13.09147 0.10278 1.0 -1.93409 38.68173 0.0 0.0
12 -19.135823501 5.59378 -10.42081 0.09914 1.0 -1.93409 38.68173 0.0 0.0
12 -19.135824853 7.44709 -7.81251 0.09895 1.0 -1.93409 38.68173 0.0 0.0
12 -19.13582491 5.59243 -5.19045 0.09809 1.0 -1.93409 38.68173 0.0 0.0
12 -19.135825592 7.43804 -2.59803 0.09799 1.0 -1.93409 38.68173 0.0 0.0
12 -19.135856213 11.02691 -21.33226 0.08441 1.0 -1.93409 38.68173 0.0 0.0
12 -19.135871002 12.9472 -18.8223 0.08155 1.0 -1.93409 38.68173 0.0 0.0
12 -19.135853844 11.17226 -15.96772 0.09156 1.0 -1.93409 38.68173 0.0 0.0
12 -19.13582483 13.0506 -13.32938 0.08842 1.0 -1.93409 38.68173 0.0 0.0
12 -19.135811595 11.21237 -10.50631 0.10713 1.0 -1.93409 38.68173 0.0 0.0
12 -19.135830445 13.1023 -7.89424 0.10789 1.0 -1.93409 38.68173 0.0 0.0
12 -19.135818908 11.2114 -5.22694 0.10054 1.0 -1.93409 38.68173 0.0 0.0
12 -19.135819285 13.07041 -2.62159 0.10081 1.0 -1.93409 38.68173 0.0 0.0
12 -17.54132 2.75047 -21.31956 0.07919 1.0 -1.93409 38.68173 0.0 0.0
12 -17.54132 4.61012 -18.6193 0.08813 1.0 -1.93409 38.68173 0.0 0.0
12 -17.54131 2.7855 -15.7391 0.10793 1.0 -1.93409 38.68173 0.0 0.0
12 -17.54133 4.64238 -13.04677 0.10022 1.0 -1.93409 38.68173 0.0 0.0
12 -17.54132 2.79656 -10.40511 0.0988 1.0 -1.93409 38.68173 0.0 0.0
12 -17.54132 4.64431 -7.79262 0.09839 1.0 -1.93409 38.68173 0.0 0.0
12 -17.54132 2.79469 -5.18214 0.09765 1.0 -1.93409 38.68173 0.0 0.0
12 -17.54132 4.63824 -2.59107 0.0974 1.0 -1.93409 38.68173 0.0 0.0
12 -17.54133 8.23058 -21.41913 0.07572 1.0 -1.93409 38.68173 0.0 0.0
12 -17.54133 10.13799 -18.74469 0.06869 1.0 -1.93409 38.68173 0.0 0.0
12 -17.54131 8.38619 -15.87159 0.11492 1.0 -1.93409 38.68173 0.0 0.0
12 -17.54131 10.26836 -13.16596 0.10944 1.0 -1.93409 38.68173 0.0 0.0
12 -17.54132 8.3915 -10.45423 0.10071 1.0 -1.93409 38.68173 0.0 0.0
12 -17.54132 10.25954 -7.8447 0.10054 1.0 -1.93409 38.68173 0.0 0.0
12 -17.54132 8.39785 -5.20628 0.09874 1.0 -1.93409 38.68173 0.0 0.0
12 -17.54132 10.24732 -2.60803 0.09876 1.0 -1.93409 38.68173 0.0 0.0
12 -17.54137 13.96809 -16.11862 0.10046 1.0 -1.93409 38.68173 0.0 0.0
12 -17.54125 14.0525 -10.68381 0.09099 1.0 -1.93409 38.68173 0.0 0.0
12 -17.54133 14.04614 -5.25222 0.10601 1.0 -1.93409 38.68173 0.0 0.0
12 -15.94677 1.84626 -18.60766 0.08743 1.0 -1.93409 38.68173 0.0 0.0
12 -15.94681 1.85085 -13.03783 0.10024 1.0 -1.93409 38.68173 0.0 0.0
12 -15.94682 1.84904 -7.78418 0.09811 1.0 -1.93409 38.68173 0.0 0.0
12 -15.94682 1.84552 -2.588 0.09709 1.0 -1.93409 38.68173 0.0 0.0
12 -15.9468 5.5018 -21.33694 0.07865 1.0 -1.93409 38.68173 0.0 0.0
12 -15.9468 7.38355 -18.67953 0.08638 1.0 -1.93409 38.68173 0.0 0.0
12 -15.94681 5.57444 -15.7457 0.10967 1.0 -1.93409 38.68173 0.0 0.0
12 -15.94683 7.44639 -13.09148 0.10278 1.0 -1.93409 38.68173 0.0 0.0
12 -15.94682 5.59378 -10.42082 0.09914 1.0 -1.93409 38.68173 0.0 0.0
12 -15.94682 7.44708 -7.81252 0.09895 1.0 -1.93409 38.68173 0.0 0.0
12 -15.94682 5.59244 -5.19045 0.09809 1.0 -1.93409 38.68173 0.0 0.0
12 -15.94682 7.43803 -2.59803 0.09799 1.0 -1.93409 38.68173 0.0 0.0
12 -15.94682 11.02695 -21.33223 0.08441 1.0 -1.93409 38.68173 0.0 0.0
12 -15.94682 12.94723 -18.82226 0.08155 1.0 -1.93409 38.68173 0.0 0.0
12 -15.94681 11.1723 -15.96772 0.09156 1.0 -1.93409 38.68173 0.0 0.0
12 -15.94681 13.0506 -13.32939 0.08842 1.0 -1.93409 38.68173 0.0 0.0
12 -15.94681 11.21239 -10.50634 0.10713 1.0 -1.93409 38.68173 0.0 0.0
12 -15.9468 13.10229 -7.89424 0.10789 1.0 -1.93409 38.68173 0.0 0.0
12 -15.94683 11.21141 -5.22695 0.10054 1.0 -1.93409 38.68173 0.0 0.0
12 -15.94682 13.07041 -2.62159 0.10081 1.0 -1.93409 38.68173 0.0 0.0
12 -14.35233 2.75053 -21.31966 0.07918 1.0 -1.93409 38.68173 0.0 0.0
12 -14.35232 4.61011 -18.61933 0.08812 1.0 -1.93409 38.68173 0.0 0.0
12 -14.35235 2.78547 -15.73909 0.10792 1.0 -1.93409 38.68173 0.0 0.0
12 -14.35233 4.64237 -13.04679 0.10022 1.0 -1.93409 38.68173 0.0 0.0
12 -14.35232 2.79658 -10.40513 0.0988 1.0 -1.93409 38.68173 0.0 0.0
12 -14.35232 4.6443 -7.79263 0.09839 1.0 -1.93409 38.68173 0.0 0.0
12 -14.35232 2.7947 -5.18214 0.09765 1.0 -1.93409 38.68173 0.0 0.0
12 -14.35232 4.63823 -2.59107 0.0974 1.0 -1.93409 38.68173 0.0 0.0
12 -14.35233 8.23061 -21.41926 0.07576 1.0 -1.93409 38.68173 0.0 0.0
12 -14.35231 10.13796 -18.74474 0.06868 1.0 -1.93409 38.68173 0.0 0.0
12 -14.35234 8.38622 -15.8716 0.11492 1.0 -1.93409 38.68173 0.0 0.0
12 -14.35235 10.26835 -13.16604 0.10944 1.0 -1.93409 38.68173 0.0 0.0
12 -14.35232 8.39151 -10.45426 0.10071 1.0 -1.93409 38.68173 0.0 0.0
12 -14.35232 10.25953 -7.84471 0.10054 1.0 -1.93409 38.68173 0.0 0.0
12 -14.35232 8.39787 -5.20629 0.09874 1.0 -1.93409 38.68173 0.0 0.0
12 -14.35232 10.24732 -2.60803 0.09876 1.0 -1.93409 38.68173 0.0 0.0
12 -14.35236 13.96832 -16.11829 0.10046 1.0 -1.93409 38.68173 0.0 0.0
12 -14.35229 14.05252 -10.68386 0.09099 1.0 -1.93409 38.68173 0.0 0.0
12 -14.35238 14.04619 -5.25221 0.10602 1.0 -1.93409 38.68173 0.0 0.0
12 -22.32483 16.87339 -10.74505 0.09255 1.0 -1.93409 38.68173 0.0 0.0
12 -22.32483 18.66494 -8.20417 0.09001 1.0 -1.93409 38.68173 0.0 0.0
12 -22.32485 16.8881 -5.38812 0.09034 1.0 -1.93409 38.68173 0.0 0.0
12 -22.32474 18.71645 -2.69335 0.09371 1.0 -1.93409 38.68173 0.0 0.0
12 -20.73047 15.82331 -13.5231 0.08738 1.0 -1.93409 38.68173 0.0 0.0
12 -20.73 15.89043 -7.99154 0.09011 1.0 -1.93409 38.68173 0.0 0.0
12 -20.73 15.92934 -2.65048 0.10692 1.0 -1.93409 38.68173 0.0 0.0
12 -20.7304 19.71214 -5.44691 0.08699 1.0 -1.93409 38.68173 0.0 0.0
12 -20.73034 21.49067 -2.94902 0.09042 1.0 -1.93409 38.68173 0.0 0.0
12 -19.135788415 16.87325 -10.74529 0.09259 1.0 -1.93409 38.68173 0.0 0.0
12 -19.1359115371 18.66485 -8.20418 0.09005 1.0 -1.93409 38.68173 0.0 0.0
12 -19.1359082196 16.88808 -5.38805 0.09032 1.0 -1.93409 38.68173 0.0 0.0
12 -19.135798243 18.71652 -2.6933 0.09371 1.0 -1.93409 38.68173 0.0 0.0
12 -17.54123 15.82329 -13.52311 0.08738 1.0 -1.93409 38.68173 0.0 0.0
12 -17.54132 15.89047 -7.99084 0.09015 1.0 -1.93409 38.68173 0.0 0.0
12 -17.5413 15.92938 -2.65122 0.10696 1.0 -1.93409 38.68173 0.0 0.0
12 -17.54132 19.71213 -5.44691 0.08699 1.0 -1.93409 38.68173 0.0 0.0
12 -17.54125 21.49067 -2.94902 0.09042 1.0 -1.93409 38.68173 0.0 0.0
12 -15.94679 16.8733 -10.74527 0.09259 1.0 -1.93409 38.68173 0.0 0.0
12 -15.94672 18.66486 -8.20417 0.09005 1.0 -1.93409 38.68173 0.0 0.0
12 -15.94675 16.88811 -5.38805 0.09032 1.0 -1.93409 38.68173 0.0 0.0
12 -15.94683 18.71653 -2.69332 0.0937 1.0 -1.93409 38.68173 0.0 0.0
12 -14.35233 15.82355 -13.52302 0.08736 1.0 -1.93409 38.68173 0.0 0.0
12 -14.35268 15.89041 -7.99157 0.0901 1.0 -1.93409 38.68173 0.0 0.0
12 -14.35269 15.92933 -2.65049 0.10692 1.0 -1.93409 38.68173 0.0 0.0
12 -14.35237 19.71226 -5.44684 0.08695 1.0 -1.93409 38.68173 0.0 0.0
12 -14.35229 21.49075 -2.949 0.09039 1.0 -1.93409 38.68173 0.0 0.0
12 -22.32498 -22.30308 4.63573e-07 0.11333 1.0 -1.93409 38.68173 0.0 0.0
12 -22.3248 -20.66507 2.95422 0.07812 1.0 -1.93409 38.68173 0.0 0.0
12 -22.32481 -16.91361 3.75812e-07 0.11081 1.0 -1.93409 38.68173 0.0 0.0
12 -22.32481 -14.99684 2.62506 0.10657 1.0 -1.93409 38.68173 0.0 0.0
12 -22.32477 -16.82093 5.33701 0.09065 1.0 -1.93409 38.68173 0.0 0.0
12 -22.32487 -14.97166 8.01554 0.08953 1.0 -1.93409 38.68173 0.0 0.0
12 -22.32482 -16.76798 10.83707 0.08867 1.0 -1.93409 38.68173 0.0 0.0
12 -22.3248 -14.94856 13.38678 0.09557 1.0 -1.93409 38.68173 0.0 0.0
12 -20.73051 -19.74151 -3.8729e-07 0.07639 1.0 -1.93409 38.68173 0.0 0.0
12 -20.73037 -17.84881 2.73456 0.08823 1.0 -1.93409 38.68173 0.0 0.0
12 -20.7304 -19.57608 5.57512 0.09256 1.0 -1.93409 38.68173 0.0 0.0
12 -20.73038 -17.79475 8.09066 0.08861 1.0 -1.93409 38.68173 0.0 0.0
12 -19.1359405564 -22.30301 4.44979e-07 0.11336 1.0 -1.93409 38.68173 0.0 0.0
12 -19.13581739 -20.66492 2.9543 0.07812 1.0 -1.93409 38.68173 0.0 0.0
12 -19.135854896 -16.91366 3.77505e-07 0.11081 1.0 -1.93409 38.68173 0.0 0.0
12 -19.135820777 -14.9968 2.62503 0.10657 1.0 -1.93409 38.68173 0.0 0.0
12 -19.135820552 -16.82097 5.33695 0.09065 1.0 -1.93409 38.68173 0.0 0.0
12 -19.1359151519 -14.97161 8.01553 0.08953 1.0 -1.93409 38.68173 0.0 0.0
12 -19.1359034349 -16.76779 10.83717 0.0887 1.0 -1.93409 38.68173 0.0 0.0
12 -19.135805279 -14.94835 13.387 0.09561 1.0 -1.93409 38.68173 0.0 0.0
12 -17.54133 -19.74151 -3.81828e-07 0.0764 1.0 -1.93409 38.68173 0.0 0.0
12 -17.54128 -17.84878 2.73456 0.08823 1.0 -1.93409 38.68173 0.0 0.0
12 -17.54125 -19.57607 5.57516 0.09256 1.0 -1.93409 38.68173 0.0 0.0
12 -17.54133 -17.79471 8.09068 0.08862 1.0 -1.93409 38.68173 0.0 0.0
12 -15.94684 -22.30303 4.51411e-07 0.11335 1.0 -1.93409 38.68173 0.0 0.0
12 -15.94678 -20.66496 2.95428 0.07812 1.0 -1.93409 38.68173 0.0 0.0
12 -15.94683 -16.91364 3.77154e-07 0.11081 1.0 -1.93409 38.68173 0.0 0.0
12 -15.94683 -14.99682 2.62505 0.10657 1.0 -1.93409 38.68173 0.0 0.0
12 -15.94682 -16.82097 5.33697 0.09065 1.0 -1.93409 38.68173 0.0 0.0
12 -15.94677 -14.97164 8.01553 0.08953 1.0 -1.93409 38.68173 0.0 0.0
12 -15.94671 -16.7678 10.83716 0.0887 1.0 -1.93409 38.68173 0.0 0.0
12 -15.9468 -14.94839 13.38698 0.09561 1.0 -1.93409 38.68173 0.0 0.0
12 -14.35237 -19.74143 -3.91254e-07 0.07637 1.0 -1.93409 38.68173 0.0 0.0
12 -14.35231 -17.84881 2.73458 0.08823 1.0 -1.93409 38.68173 0.0 0.0
12 -14.3523 -19.5762 5.57506 0.09253 1.0 -1.93409 38.68173 0.0 0.0
12 -14.35238 -17.79489 8.09055 0.08858 1.0 -1.93409 38.68173 0.0 0.0
12 -22.32483 -11.18727 4.70672e-07 0.09873 1.0 -1.93409 38.68173 0.0 0.0
12 -22.32482 -9.33957 2.60559 0.0986 1.0 -1.93409 38.68173 0.0 0.0
12 -22.32483 -11.20393 5.23261 0.10062 1.0 -1.93409 38.68173 0.0 0.0
12 -22.32482 -9.33994 7.83579 0.10033 1.0 -1.93409 38.68173 0.0 0.0
12 -22.3248 -11.22643 10.52847 0.10797 1.0 -1.93409 38.68173 0.0 0.0
12 -22.32481 -9.31629 13.14574 0.10738 1.0 -1.93409 38.68173 0.0 0.0
12 -22.32481 -11.14141 15.99018 0.08802 1.0 -1.93409 38.68173 0.0 0.0
12 -22.32487 -9.2012 18.70961 0.07676 1.0 -1.93409 38.68173 0.0 0.0
12 -22.32491 -10.99671 21.29537 0.08914 1.0 -1.93409 38.68173 0.0 0.0
12 -22.32482 -5.58157 4.19511e-07 0.09742 1.0 -1.93409 38.68173 0.0 0.0
12 -22.32482 -3.73632 2.59003 0.09737 1.0 -1.93409 38.68173 0.0 0.0
12 -22.32483 -5.58403 5.19125 0.09793 1.0 -1.93409 38.68173 0.0 0.0
12 -22.32483 -3.73715 7.78876 0.09832 1.0 -1.93409 38.68173 0.0 0.0
12 -22.32483 -5.58654 10.41906 0.09906 1.0 -1.93409 38.68173 0.0 0.0
12 -22.32481 -3.72589 13.04246 0.10029 1.0 -1.93409 38.68173 0.0 0.0
12 -22.32481 -5.5709 15.76046 0.11001 1.0 -1.93409 38.68173 0.0 0.0
12 -22.32483 -3.68152 18.60998 0.08693 1.0 -1.93409 38.68173 0.0 0.0
12 -22.32483 -5.52368 21.31449 0.07866 1.0 -1.93409 38.68173 0.0 0.0
12 -22.32482 0.00172 3.79709e-07 0.09694 1.0 -1.93409 38.68173 0.0 0.0
12 -22.32482 0.00285 5.18002 0.09744 1.0 -1.93409 38.68173 0.0 0.0
12 -22.32482 0.00377 10.40166 0.09872 1.0 -1.93409 38.68173 0.0 0.0
12 -22.32479 0.00571 15.73629 0.10793 1.0 -1.93409 38.68173 0.0 0.0
12 -22.32482 -0.00617 21.31474 0.07902 1.0 -1.93409 38.68173 0.0 0.0
12 -20.73033 -14.00724 4.9524e-07 0.10316 1.0 -1.93409 38.68173 0.0 0.0
12 -20.73032 -12.15467 2.61747 0.10044 1.0 -1.93409 38.68173 0.0 0.0
12 -20.73035 -14.05021 5.27555 0.10684 1.0 -1.93409 38.68173 0.0 0.0
12 -20.73033 -12.15353 7.87798 0.10587 1.0 -1.93409 38.68173 0.0 0.0
12 -20.73034 -13.99754 10.64468 0.08883 1.0 -1.93409 38.68173 0.0 0.0
12 -20.73037 -12.12119 13.31227 0.09016 1.0 -1.93409 38.68173 0.0 0.0
12 -20.73049 -13.91319 16.14258 0.08686 1.0 -1.93409 38.68173 0.0 0.0
12 -20.73034 -12.05089 18.72542 0.0907 1.0 -1.93409 38.68173 0.0 0.0
12 -20.73033 -8.38088 4.55653e-07 0.09799 1.0 -1.93409 38.68173 0.0 0.0
12 -20.73033 -6.53409 2.59607 0.09789 1.0 -1.93409 38.68173 0.0 0.0
12 -20.73033 -8.38804 5.20792 0.09861 1.0 -1.93409 38.68173 0.0 0.0
12 -20.73033 -6.537 7.80553 0.09872 1.0 -1.93409 38.68173 0.0 0.0
12 -20.73033 -8.3946 10.4608 0.10115 1.0 -1.93409 38.68173 0.0 0.0
12 -20.73033 -6.51409 13.06384 0.10148 1.0 -1.93409 38.68173 0.0 0.0
12 -20.73029 -8.38363 15.84586 0.11387 1.0 -1.93409 38.68173 0.0 0.0
12 -20.73013 -6.446 18.63322 0.08704 1.0 -1.93409 38.68173 0.0 0.0
12 -20.73036 -8.25982 21.39834 0.0734 1.0 -1.93409 38.68173 0.0 0.0
12 -20.73033 -2.78819 3.89791e-07 0.09704 1.0 -1.93409 38.68173 0.0 0.0
12 -20.73033 -0.94439 2.58779 0.09709 1.0 -1.93409 38.68173 0.0 0.0
12 -20.73033 -2.78826 5.18239 0.09754 1.0 -1.93409 38.68173 0.0 0.0
12 -20.73033 -0.94271 7.78324 0.09811 1.0 -1.93409 38.68173 0.0 0.0
12 -20.73036 -2.78854 10.40414 0.09874 1.0 -1.93409 38.68173 0.0 0.0
12 -20.73032 -0.93807 13.03772 0.10029 1.0 -1.93409 38.68173 0.0 0.0
12 -20.73015 -2.78126 15.74161 0.10837 1.0 -1.93409 38.68173 0.0 0.0
12 -20.73021 -0.91988 18.60424 0.08723 1.0 -1.93409 38.68173 0.0 0.0
12 -20.73044 -2.76164 21.31591 0.07928 1.0 -1.93409 38.68173 0.0 0.0
12 -19.135825234 -11.18726 4.7066e-07 0.09873 1.0 -1.93409 38.68173 0.0 0.0
12 -19.135824177 -9.33954 2.60559 0.0986 1.0 -1.93409 38.68173 0.0 0.0
12 -19.135825906 -11.20392 5.2326 0.10062 1.0 -1.93409 38.68173 0.0 0.0
12 -19.135826776 -9.33992 7.83577 0.10033 1.0 -1.93409 38.68173 0.0 0.0
12 -19.13584043 -11.22645 10.52846 0.10798 1.0 -1.93409 38.68173 0.0 0.0
12 -19.135818711 -9.31612 13.14578 0.10738 1.0 -1.93409 38.68173 0.0 0.0
12 -19.135855057 -11.14144 15.99015 0.08802 1.0 -1.93409 38.68173 0.0 0.0
12 -19.135807406 -9.20091 18.70948 0.07678 1.0 -1.93409 38.68173 0.0 0.0
12 -19.135869131 -10.99665 21.29534 0.08914 1.0 -1.93409 38.68173 0.0 0.0
12 -19.135825639 -5.58158 4.19511e-07 0.09742 1.0 -1.93409 38.68173 0.0 0.0
12 -19.135824948 -3.73631 2.59003 0.09737 1.0 -1.93409 38.68173 0.0 0.0
12 -19.135825701 -5.58404 5.19125 0.09793 1.0 -1.93409 38.68173 0.0 0.0
12 -19.135825701 -3.73713 7.78877 0.09832 1.0 -1.93409 38.68173 0.0 0.0
12 -19.135816864 -5.58655 10.41909 0.09907 1.0 -1.93409 38.68173 0.0 0.0
12 -19.135860756 -3.72586 13.04235 0.10025 1.0 -1.93409 38.68173 0.0 0.0
12 -19.1359199799 -5.57134 15.75978 0.10996 1.0 -1.93409 38.68173 0.0 0.0
12 -19.13475 -3.68181 18.6091 0.08701 1.0 -1.93409 38.68173 0.0 0.0
12 -19.13578068 -5.52376 21.31412 0.07866 1.0 -1.93409 38.68173 0.0 0.0
12 -19.135824806 0.00172 3.79744e-07 0.09694 1.0 -1.93409 38.68173 0.0 0.0
12 -19.135825 0.00284 5.18002 0.09744 1.0 -1.93409 38.68173 0.0 0.0
12 -19.135851402 0.00377 10.4016 0.09871 1.0 -1.93409 38.68173 0.0 0.0
12 -19.1360381203 0.00588 15.73635 0.1079 1.0 -1.93409 38.68173 0.0 0.0
12 -19.135850002 -0.00622 21.31469 0.07902 1.0 -1.93409 38.68173 0.0 0.0
12 -17.54132 -14.00724 4.9494e-07 0.10316 1.0 -1.93409 38.68173 0.0 0.0
12 -17.54132 -12.15466 2.61747 0.10044 1.0 -1.93409 38.68173 0.0 0.0
12 -17.54131 -14.05023 5.27556 0.10684 1.0 -1.93409 38.68173 0.0 0.0
12 -17.54133 -12.15351 7.87795 0.10587 1.0 -1.93409 38.68173 0.0 0.0
12 -17.54133 -13.99754 10.64466 0.08884 1.0 -1.93409 38.68173 0.0 0.0
12 -17.54125 -12.12117 13.31226 0.09016 1.0 -1.93409 38.68173 0.0 0.0
12 -17.54123 -13.91316 16.14259 0.08686 1.0 -1.93409 38.68173 0.0 0.0
12 -17.54138 -12.05084 18.72542 0.0907 1.0 -1.93409 38.68173 0.0 0.0
12 -17.54132 -8.38088 4.55666e-07 0.09799 1.0 -1.93409 38.68173 0.0 0.0
12 -17.54132 -6.53408 2.59607 0.09789 1.0 -1.93409 38.68173 0.0 0.0
12 -17.54132 -8.38804 5.20792 0.09861 1.0 -1.93409 38.68173 0.0 0.0
12 -17.54132 -6.53699 7.80553 0.09872 1.0 -1.93409 38.68173 0.0 0.0
12 -17.54132 -8.39462 10.46079 0.10115 1.0 -1.93409 38.68173 0.0 0.0
12 -17.54133 -6.51396 13.06416 0.10147 1.0 -1.93409 38.68173 0.0 0.0
12 -17.54131 -8.38337 15.84589 0.11383 1.0 -1.93409 38.68173 0.0 0.0
12 -17.54131 -6.4452 18.6326 0.0871 1.0 -1.93409 38.68173 0.0 0.0
12 -17.54134 -8.25993 21.39845 0.07338 1.0 -1.93409 38.68173 0.0 0.0
12 -17.54132 -2.78819 3.89872e-07 0.09704 1.0 -1.93409 38.68173 0.0 0.0